HEADER
"PSFversion" "1.00"
"V1n V0n" "UCD_Analog_Parts_vdc_spectre"
"I9<7>v" "I9_7v"
"I10n" "_sub53"
"I9<6>v" "I9_6v"
"I9<5>v" "I9_5v"
"I9<4>v" "I9_4v"
"I9<3>v" "I9_3v"
"I9<2>v" "I9_2v"
"I9<1>v" "I9_1v"
"I9<0>v" "I9_0v"
"I7<7>v" "I7_7v"
"I7<6>v" "I7_6v"
"I7<5>v" "I7_5v"
"I7<4>v" "I7_4v"
"I7<3>v" "I7_3v"
"I7<2>v" "I7_2v"
"I7<1>v" "I7_1v"
"I7<0>v" "I7_0v"
"I16<1>v" "I16_1v"
"I16<0>v" "I16_0v"
"I15<19>v" "I15_19v"
"I15<18>v" "I15_18v"
"I15<17>v" "I15_17v"
"I15<16>v" "I15_16v"
"I15<15>v" "I15_15v"
"I15<14>v" "I15_14v"
"I15<13>v" "I15_13v"
"I15<12>v" "I15_12v"
"I15<11>v" "I15_11v"
"I15<10>v" "I15_10v"
"I15<9>v" "I15_9v"
"I15<8>v" "I15_8v"
"I15<7>v" "I15_7v"
"I15<6>v" "I15_6v"
"I15<5>v" "I15_5v"
"I15<4>v" "I15_4v"
"I15<3>v" "I15_3v"
"I15<2>v" "I15_2v"
"I15<1>v" "I15_1v"
"I15<0>v" "I15_0v"
"I11<31>v" "I11_31v"
"I11<30>v" "I11_30v"
"I11<29>v" "I11_29v"
"I11<28>v" "I11_28v"
"I11<27>v" "I11_27v"
"I11<26>v" "I11_26v"
"I11<25>v" "I11_25v"
"I11<24>v" "I11_24v"
"I11<23>v" "I11_23v"
"I11<22>v" "I11_22v"
"I11<21>v" "I11_21v"
"I11<20>v" "I11_20v"
"I11<19>v" "I11_19v"
"I11<18>v" "I11_18v"
"I11<17>v" "I11_17v"
"I11<16>v" "I11_16v"
"I11<15>v" "I11_15v"
"I11<14>v" "I11_14v"
"I11<13>v" "I11_13v"
"I11<12>v" "I11_12v"
"I11<11>v" "I11_11v"
"I11<10>v" "I11_10v"
"I11<9>v" "I11_9v"
"I11<8>v" "I11_8v"
"I11<7>v" "I11_7v"
"I11<6>v" "I11_6v"
"I11<5>v" "I11_5v"
"I11<4>v" "I11_4v"
"I11<3>v" "I11_3v"
"I11<2>v" "I11_2v"
"I11<1>v" "I11_1v"
"I11<0>v" "I11_0v"
"I14<31>v" "I14_31v"
"I14<30>v" "I14_30v"
"I14<29>v" "I14_29v"
"I14<28>v" "I14_28v"
"I14<27>v" "I14_27v"
"I14<26>v" "I14_26v"
"I14<25>v" "I14_25v"
"I14<24>v" "I14_24v"
"I14<23>v" "I14_23v"
"I14<22>v" "I14_22v"
"I14<21>v" "I14_21v"
"I14<20>v" "I14_20v"
"I14<19>v" "I14_19v"
"I14<18>v" "I14_18v"
"I14<17>v" "I14_17v"
"I14<16>v" "I14_16v"
"I14<15>v" "I14_15v"
"I14<14>v" "I14_14v"
"I14<13>v" "I14_13v"
"I14<12>v" "I14_12v"
"I14<11>v" "I14_11v"
"I14<10>v" "I14_10v"
"I14<9>v" "I14_9v"
"I14<8>v" "I14_8v"
"I14<7>v" "I14_7v"
"I14<6>v" "I14_6v"
"I14<5>v" "I14_5v"
"I14<4>v" "I14_4v"
"I14<3>v" "I14_3v"
"I14<2>v" "I14_2v"
"I14<1>v" "I14_1v"
"I14<0>v" "I14_0v"
"I9<7>n I9<6>n I9<5>n I9<4>n I9<3>n I9<2>n I9<1>n I9<0>n I7<7>n I7<6>n I7<5>n I7<4>n I7<3>n I7<2>n I7<1>n I7<0>n I16<1>n I16<0>n I15<19>n I15<18>n I15<17>n I15<16>n I15<15>n I15<14>n I15<13>n I15<12>n I15<11>n I15<10>n I15<9>n I15<8>n I15<7>n I15<6>n I15<5>n I15<4>n I15<3>n I15<2>n I15<1>n I15<0>n I5n I11<31>n I11<30>n I11<29>n I11<28>n I11<27>n I11<26>n I11<25>n I11<24>n I11<23>n I11<22>n I11<21>n I11<20>n I11<19>n I11<18>n I11<17>n I11<16>n I11<15>n I11<14>n I11<13>n I11<12>n I11<11>n I11<10>n I11<9>n I11<8>n I11<7>n I11<6>n I11<5>n I11<4>n I11<3>n I11<2>n I11<1>n I11<0>n I14<31>n I14<30>n I14<29>n I14<28>n I14<27>n I14<26>n I14<25>n I14<24>n I14<23>n I14<22>n I14<21>n I14<20>n I14<19>n I14<18>n I14<17>n I14<16>n I14<15>n I14<14>n I14<13>n I14<12>n I14<11>n I14<10>n I14<9>n I14<8>n I14<7>n I14<6>n I14<5>n I14<4>n I14<3>n I14<2>n I14<1>n I14<0>n" "inv_1xt"
