HEADER
"PSFversion" "1.00"
"pV<3>v" "pV_3v"
"pV<2>v" "pV_2v"
"pV<1>v" "pV_1v"
"pV<0>v" "pV_0v"
"InAck<3>v" "InAck_3v"
"InAck<2>v" "InAck_2v"
"InAck<0>v" "InAck_0v"
"InAck<1>v" "InAck_1v"
"1of4_5<3>v" "_1of4_5_3v"
"1of4_5<2>v" "_1of4_5_2v"
"1of4_5<1>v" "_1of4_5_1v"
"1of4_5<0>v" "_1of4_5_0v"
"ValAddrv" "ValAddrv"
"1of4_3<3>v" "_1of4_3_3v"
"1of4_3<2>v" "_1of4_3_2v"
"1of4_3<1>v" "_1of4_3_1v"
"1of4_3<0>v" "_1of4_3_0v"
"1of4_2<3>v" "_1of4_2_3v"
"1of4_2<2>v" "_1of4_2_2v"
"1of4_2<1>v" "_1of4_2_1v"
"1of4_2<0>v" "_1of4_2_0v"
"1of4_4<3>v" "_1of4_4_3v"
"1of4_4<2>v" "_1of4_4_2v"
"1of4_4<1>v" "_1of4_4_1v"
"1of4_4<0>v" "_1of4_4_0v"
"AddrAck<3>v" "AddrAck_3v"
"AddrAck<2>v" "AddrAck_2v"
"AddrAck<1>v" "AddrAck_1v"
"AddrAck<0>v" "AddrAck_0v"
"OutAckv" "OutAckv"
"1of4_1<3>v" "_1of4_1_3v"
"1of4_1<2>v" "_1of4_1_2v"
"1of4_1<1>v" "_1of4_1_1v"
"1of4_1<0>v" "_1of4_1_0v"
"Resetv" "Resetv"
"RW<1>v" "RW_1v"
"RW<0>v" "RW_0v"
