HEADER
"PSFversion" "1.00"
"I0n" "Demux_3e1of4"
"I1<3>v" "I1_3v"
"I3n" "or2_1x"
"I1<2>v" "I1_2v"
"I1<1>v" "I1_1v"
"I1<0>v" "I1_0v"
"I2<3>v" "I2_3v"
"I2<2>v" "I2_2v"
"I2<1>v" "I2_1v"
"I2<0>v" "I2_0v"
"I1<3>n I1<2>n I1<1>n I1<0>n I2<3>n I2<2>n I2<1>n I2<0>n" "and3_1x"
"1of4_1<3>v" ":1v"
"1of4_1<2>v" ":2v"
"1of4_1<1>v" ":3v"
"1of4_1<0>v" ":4v"
"1of4_2<3>v" ":5v"
"1of4_2<2>v" ":6v"
"1of4_2<1>v" ":7v"
"1of4_2<0>v" ":8v"
"1of4_3<3>v" ":9v"
"1of4_3<2>v" ":10v"
"1of4_3<1>v" ":11v"
"1of4_3<0>v" ":12v"
"1of4_4<3>v" ":13v"
"1of4_4<2>v" ":14v"
"1of4_4<1>v" ":15v"
"1of4_4<0>v" ":16v"
"A<63>v" ":17v"
"A<62>v" ":18v"
"A<61>v" ":19v"
"A<60>v" ":20v"
"A<59>v" ":21v"
"A<58>v" ":22v"
"A<57>v" ":23v"
"A<56>v" ":24v"
"A<55>v" ":25v"
"A<54>v" ":26v"
"A<53>v" ":27v"
"A<52>v" ":28v"
"A<51>v" ":29v"
"A<50>v" ":30v"
"A<49>v" ":31v"
"A<48>v" ":32v"
"A<47>v" ":33v"
"A<46>v" ":34v"
"A<45>v" ":35v"
"A<44>v" ":36v"
"A<43>v" ":37v"
"A<42>v" ":38v"
"A<41>v" ":39v"
"A<40>v" ":40v"
"A<39>v" ":41v"
"A<38>v" ":42v"
"A<37>v" ":43v"
"A<36>v" ":44v"
"A<35>v" ":45v"
"A<34>v" ":46v"
"A<33>v" ":47v"
"A<32>v" ":48v"
"A<31>v" ":49v"
"A<30>v" ":50v"
"A<29>v" ":51v"
"A<28>v" ":52v"
"A<27>v" ":53v"
"A<26>v" ":54v"
"A<25>v" ":55v"
"A<24>v" ":56v"
"A<23>v" ":57v"
"A<22>v" ":58v"
"A<21>v" ":59v"
"A<20>v" ":60v"
"A<19>v" ":61v"
"A<18>v" ":62v"
"A<17>v" ":63v"
"A<16>v" ":64v"
"A<15>v" ":65v"
"A<14>v" ":66v"
"A<13>v" ":67v"
"A<12>v" ":68v"
"A<11>v" ":69v"
"A<10>v" ":70v"
"A<9>v" ":71v"
"A<8>v" ":72v"
"A<7>v" ":73v"
"A<6>v" ":74v"
"A<5>v" ":75v"
"A<4>v" ":76v"
"A<3>v" ":77v"
"A<2>v" ":78v"
"A<1>v" ":79v"
"A<0>v" ":80v"
"Env" ":81v"
"S<7>v" ":82v"
"S<6>v" ":83v"
"S<5>v" ":84v"
"S<4>v" ":85v"
"S<3>v" ":86v"
"S<2>v" ":87v"
"S<1>v" ":88v"
"S<0>v" ":89v"
"Ackv" ":90v"
