HEADER
"PSFversion" "1.00"
"WAck<7>v" "WAck_7v"
"WAck<6>v" "WAck_6v"
"WAck<5>v" "WAck_5v"
"WAck<4>v" "WAck_4v"
"WAck<3>v" "WAck_3v"
"WAck<2>v" "WAck_2v"
"WAck<1>v" "WAck_1v"
"WAck<0>v" "WAck_0v"
"~RW<1>v" "\\~RW_1v"
"~RW<0>v" "\\~RW_0v"
"RWT<1>v" "RWT_1v"
"RWT<0>v" "RWT_0v"
"~Ackv" "\\~Ackv"
"ReaDataT<31>v" "ReaDataT_31v"
"ReaDataT<30>v" "ReaDataT_30v"
"ReaDataT<29>v" "ReaDataT_29v"
"ReaDataT<28>v" "ReaDataT_28v"
"ReaDataT<27>v" "ReaDataT_27v"
"ReaDataT<26>v" "ReaDataT_26v"
"ReaDataT<25>v" "ReaDataT_25v"
"ReaDataT<24>v" "ReaDataT_24v"
"ReaDataT<23>v" "ReaDataT_23v"
"ReaDataT<22>v" "ReaDataT_22v"
"ReaDataT<21>v" "ReaDataT_21v"
"ReaDataT<20>v" "ReaDataT_20v"
"ReaDataT<19>v" "ReaDataT_19v"
"ReaDataT<18>v" "ReaDataT_18v"
"ReaDataT<17>v" "ReaDataT_17v"
"ReaDataT<16>v" "ReaDataT_16v"
"ReaDataT<15>v" "ReaDataT_15v"
"ReaDataT<14>v" "ReaDataT_14v"
"ReaDataT<13>v" "ReaDataT_13v"
"ReaDataT<12>v" "ReaDataT_12v"
"ReaDataT<11>v" "ReaDataT_11v"
"ReaDataT<10>v" "ReaDataT_10v"
"ReaDataT<9>v" "ReaDataT_9v"
"ReaDataT<8>v" "ReaDataT_8v"
"ReaDataT<7>v" "ReaDataT_7v"
"ReaDataT<6>v" "ReaDataT_6v"
"ReaDataT<5>v" "ReaDataT_5v"
"ReaDataT<4>v" "ReaDataT_4v"
"ReaDataT<3>v" "ReaDataT_3v"
"ReaDataT<2>v" "ReaDataT_2v"
"ReaDataT<1>v" "ReaDataT_1v"
"ReaDataT<0>v" "ReaDataT_0v"
"AckTv" "AckTv"
"AT<19>v" "AT_19v"
"AT<18>v" "AT_18v"
"AT<17>v" "AT_17v"
"AT<16>v" "AT_16v"
"AT<15>v" "AT_15v"
"AT<14>v" "AT_14v"
"AT<13>v" "AT_13v"
"AT<12>v" "AT_12v"
"AT<11>v" "AT_11v"
"AT<10>v" "AT_10v"
"AT<9>v" "AT_9v"
"AT<8>v" "AT_8v"
"AT<7>v" "AT_7v"
"AT<6>v" "AT_6v"
"AT<5>v" "AT_5v"
"AT<4>v" "AT_4v"
"AT<3>v" "AT_3v"
"AT<2>v" "AT_2v"
"AT<1>v" "AT_1v"
"AT<0>v" "AT_0v"
"WriteDataT<31>v" "WriteDataT_31v"
"WriteDataT<30>v" "WriteDataT_30v"
"WriteDataT<29>v" "WriteDataT_29v"
"WriteDataT<28>v" "WriteDataT_28v"
"WriteDataT<27>v" "WriteDataT_27v"
"WriteDataT<26>v" "WriteDataT_26v"
"WriteDataT<25>v" "WriteDataT_25v"
"WriteDataT<24>v" "WriteDataT_24v"
"WriteDataT<23>v" "WriteDataT_23v"
"WriteDataT<22>v" "WriteDataT_22v"
"WriteDataT<21>v" "WriteDataT_21v"
"WriteDataT<20>v" "WriteDataT_20v"
"WriteDataT<19>v" "WriteDataT_19v"
"WriteDataT<18>v" "WriteDataT_18v"
"WriteDataT<17>v" "WriteDataT_17v"
"WriteDataT<16>v" "WriteDataT_16v"
"WriteDataT<15>v" "WriteDataT_15v"
"WriteDataT<14>v" "WriteDataT_14v"
"WriteDataT<13>v" "WriteDataT_13v"
"WriteDataT<12>v" "WriteDataT_12v"
"WriteDataT<11>v" "WriteDataT_11v"
"WriteDataT<10>v" "WriteDataT_10v"
"WriteDataT<9>v" "WriteDataT_9v"
"WriteDataT<8>v" "WriteDataT_8v"
"WriteDataT<7>v" "WriteDataT_7v"
"WriteDataT<6>v" "WriteDataT_6v"
"WriteDataT<5>v" "WriteDataT_5v"
"WriteDataT<4>v" "WriteDataT_4v"
"WriteDataT<3>v" "WriteDataT_3v"
"WriteDataT<2>v" "WriteDataT_2v"
"WriteDataT<1>v" "WriteDataT_1v"
"WriteDataT<0>v" "WriteDataT_0v"
"~ReadData<31>v" "\\~ReadData_31v"
"~ReadData<30>v" "\\~ReadData_30v"
"~ReadData<29>v" "\\~ReadData_29v"
"~ReadData<28>v" "\\~ReadData_28v"
"~ReadData<27>v" "\\~ReadData_27v"
"~ReadData<26>v" "\\~ReadData_26v"
"~ReadData<25>v" "\\~ReadData_25v"
"~ReadData<24>v" "\\~ReadData_24v"
"~ReadData<23>v" "\\~ReadData_23v"
"~ReadData<22>v" "\\~ReadData_22v"
"~ReadData<21>v" "\\~ReadData_21v"
"~ReadData<20>v" "\\~ReadData_20v"
"~ReadData<19>v" "\\~ReadData_19v"
"~ReadData<18>v" "\\~ReadData_18v"
"~ReadData<17>v" "\\~ReadData_17v"
"~ReadData<16>v" "\\~ReadData_16v"
"~ReadData<15>v" "\\~ReadData_15v"
"~ReadData<14>v" "\\~ReadData_14v"
"~ReadData<13>v" "\\~ReadData_13v"
"~ReadData<12>v" "\\~ReadData_12v"
"~ReadData<11>v" "\\~ReadData_11v"
"~ReadData<10>v" "\\~ReadData_10v"
"~ReadData<9>v" "\\~ReadData_9v"
"~ReadData<8>v" "\\~ReadData_8v"
"~ReadData<7>v" "\\~ReadData_7v"
"~ReadData<6>v" "\\~ReadData_6v"
"~ReadData<5>v" "\\~ReadData_5v"
"~ReadData<4>v" "\\~ReadData_4v"
"~ReadData<3>v" "\\~ReadData_3v"
"~ReadData<2>v" "\\~ReadData_2v"
"~ReadData<1>v" "\\~ReadData_1v"
"~ReadData<0>v" "\\~ReadData_0v"
"net013<0>v" "net013_0v"
"net013<1>v" "net013_1v"
"net013<2>v" "net013_2v"
"net013<3>v" "net013_3v"
"net013<4>v" "net013_4v"
"~WAck<7>v" "\\~WAck_7v"
"~WAck<6>v" "\\~WAck_6v"
"~WAck<5>v" "\\~WAck_5v"
"~WAck<4>v" "\\~WAck_4v"
"~WAck<3>v" "\\~WAck_3v"
"~WAck<2>v" "\\~WAck_2v"
"~WAck<1>v" "\\~WAck_1v"
"~WAck<0>v" "\\~WAck_0v"
"~RAck<7>v" "\\~RAck_7v"
"~RAck<6>v" "\\~RAck_6v"
"~RAck<5>v" "\\~RAck_5v"
"~RAck<4>v" "\\~RAck_4v"
"~RAck<3>v" "\\~RAck_3v"
"~RAck<2>v" "\\~RAck_2v"
"~RAck<1>v" "\\~RAck_1v"
"~RAck<0>v" "\\~RAck_0v"
"RAckT<7>v" "RAckT_7v"
"RAckT<6>v" "RAckT_6v"
"RAckT<5>v" "RAckT_5v"
"RAckT<4>v" "RAckT_4v"
"RAckT<3>v" "RAckT_3v"
"RAckT<2>v" "RAckT_2v"
"RAckT<1>v" "RAckT_1v"
"RAckT<0>v" "RAckT_0v"
"net018<0>v" "net018_0v"
"net018<1>v" "net018_1v"
"net018<2>v" "net018_2v"
"net018<3>v" "net018_3v"
"net018<4>v" "net018_4v"
"~WriteData<31>v" "\\~WriteData_31v"
"~WriteData<30>v" "\\~WriteData_30v"
"~WriteData<29>v" "\\~WriteData_29v"
"~WriteData<28>v" "\\~WriteData_28v"
"~WriteData<27>v" "\\~WriteData_27v"
"~WriteData<26>v" "\\~WriteData_26v"
"~WriteData<25>v" "\\~WriteData_25v"
"~WriteData<24>v" "\\~WriteData_24v"
"~WriteData<23>v" "\\~WriteData_23v"
"~WriteData<22>v" "\\~WriteData_22v"
"~WriteData<21>v" "\\~WriteData_21v"
"~WriteData<20>v" "\\~WriteData_20v"
"~WriteData<19>v" "\\~WriteData_19v"
"~WriteData<18>v" "\\~WriteData_18v"
"~WriteData<17>v" "\\~WriteData_17v"
"~WriteData<16>v" "\\~WriteData_16v"
"~WriteData<15>v" "\\~WriteData_15v"
"~WriteData<14>v" "\\~WriteData_14v"
"~WriteData<13>v" "\\~WriteData_13v"
"~WriteData<12>v" "\\~WriteData_12v"
"~WriteData<11>v" "\\~WriteData_11v"
"~WriteData<10>v" "\\~WriteData_10v"
"~WriteData<9>v" "\\~WriteData_9v"
"~WriteData<8>v" "\\~WriteData_8v"
"~WriteData<7>v" "\\~WriteData_7v"
"~WriteData<6>v" "\\~WriteData_6v"
"~WriteData<5>v" "\\~WriteData_5v"
"~WriteData<4>v" "\\~WriteData_4v"
"~WriteData<3>v" "\\~WriteData_3v"
"~WriteData<2>v" "\\~WriteData_2v"
"~WriteData<1>v" "\\~WriteData_1v"
"~WriteData<0>v" "\\~WriteData_0v"
"~A<19>v" "\\~A_19v"
"~A<18>v" "\\~A_18v"
"~A<17>v" "\\~A_17v"
"~A<16>v" "\\~A_16v"
"~A<15>v" "\\~A_15v"
"~A<14>v" "\\~A_14v"
"~A<13>v" "\\~A_13v"
"~A<12>v" "\\~A_12v"
"~A<11>v" "\\~A_11v"
"~A<10>v" "\\~A_10v"
"~A<9>v" "\\~A_9v"
"~A<8>v" "\\~A_8v"
"~A<7>v" "\\~A_7v"
"~A<6>v" "\\~A_6v"
"~A<5>v" "\\~A_5v"
"~A<4>v" "\\~A_4v"
"~A<3>v" "\\~A_3v"
"~A<2>v" "\\~A_2v"
"~A<1>v" "\\~A_1v"
"~A<0>v" "\\~A_0v"
"gnd!v" "0v"
"vdd!v" "vdd!v"
"vcc!v" "vcc!v"
