HEADER
"PSFversion" "1.00"
"~Lackv" "\\~Lackv"
"L0v" "L0v"
"~R0v" "\\~R0v"
"Rackv" "Rackv"
"L1v" "L1v"
"~R1v" "\\~R1v"
