HEADER
"PSFversion" "1.00"
"WD_Ack<5>v" "WD_Ack_5v"
"WD_Ack<4>v" "WD_Ack_4v"
"RD_8of32<27>v" "RD_8of32_27v"
"RD_8of32<26>v" "RD_8of32_26v"
"RD_8of32<25>v" "RD_8of32_25v"
"RD_8of32<24>v" "RD_8of32_24v"
"A<18>v" "A_18v"
"A<19>v" "A_19v"
"B0_3<3>v" "B0_3_3v"
"B0_3<2>v" "B0_3_2v"
"B0_3<1>v" "B0_3_1v"
"B0_3<0>v" "B0_3_0v"
"net162v" "net162v"
"A<17>v" "A_17v"
"A<16>v" "A_16v"
"ck<2>v" "ck_2v"
"ck<3>v" "ck_3v"
"AvAck<3>v" "AvAck_3v"
"AvAck<2>v" "AvAck_2v"
"AvAck<1>v" "AvAck_1v"
"AvAck<0>v" "AvAck_0v"
"~R1_2<3>v" "\\~R1_2_3v"
"~R1_2<2>v" "\\~R1_2_2v"
"~R1_2<1>v" "\\~R1_2_1v"
"~R1_2<0>v" "\\~R1_2_0v"
"A<15>v" "A_15v"
"A<14>v" "A_14v"
"A<13>v" "A_13v"
"A<12>v" "A_12v"
"A<11>v" "A_11v"
"A<10>v" "A_10v"
"A<9>v" "A_9v"
"A<8>v" "A_8v"
"A<7>v" "A_7v"
"A<6>v" "A_6v"
"A<5>v" "A_5v"
"A<4>v" "A_4v"
"A<3>v" "A_3v"
"A<2>v" "A_2v"
"A<1>v" "A_1v"
"A<0>v" "A_0v"
"A_2<63>v" "A_2_63v"
"A_2<62>v" "A_2_62v"
"A_2<61>v" "A_2_61v"
"A_2<60>v" "A_2_60v"
"A_2<59>v" "A_2_59v"
"A_2<58>v" "A_2_58v"
"A_2<57>v" "A_2_57v"
"A_2<56>v" "A_2_56v"
"A_2<55>v" "A_2_55v"
"A_2<54>v" "A_2_54v"
"A_2<53>v" "A_2_53v"
"A_2<52>v" "A_2_52v"
"A_2<51>v" "A_2_51v"
"A_2<50>v" "A_2_50v"
"A_2<49>v" "A_2_49v"
"A_2<48>v" "A_2_48v"
"A_2<47>v" "A_2_47v"
"A_2<46>v" "A_2_46v"
"A_2<45>v" "A_2_45v"
"A_2<44>v" "A_2_44v"
"A_2<43>v" "A_2_43v"
"A_2<42>v" "A_2_42v"
"A_2<41>v" "A_2_41v"
"A_2<40>v" "A_2_40v"
"A_2<39>v" "A_2_39v"
"A_2<38>v" "A_2_38v"
"A_2<37>v" "A_2_37v"
"A_2<36>v" "A_2_36v"
"A_2<35>v" "A_2_35v"
"A_2<34>v" "A_2_34v"
"A_2<33>v" "A_2_33v"
"A_2<32>v" "A_2_32v"
"A_2<31>v" "A_2_31v"
"A_2<30>v" "A_2_30v"
"A_2<29>v" "A_2_29v"
"A_2<28>v" "A_2_28v"
"A_2<27>v" "A_2_27v"
"A_2<26>v" "A_2_26v"
"A_2<25>v" "A_2_25v"
"A_2<24>v" "A_2_24v"
"A_2<23>v" "A_2_23v"
"A_2<22>v" "A_2_22v"
"A_2<21>v" "A_2_21v"
"A_2<20>v" "A_2_20v"
"A_2<19>v" "A_2_19v"
"A_2<18>v" "A_2_18v"
"A_2<17>v" "A_2_17v"
"A_2<16>v" "A_2_16v"
"A_2<15>v" "A_2_15v"
"A_2<14>v" "A_2_14v"
"A_2<13>v" "A_2_13v"
"A_2<12>v" "A_2_12v"
"A_2<11>v" "A_2_11v"
"A_2<10>v" "A_2_10v"
"A_2<9>v" "A_2_9v"
"A_2<8>v" "A_2_8v"
"A_2<7>v" "A_2_7v"
"A_2<6>v" "A_2_6v"
"A_2<5>v" "A_2_5v"
"A_2<4>v" "A_2_4v"
"A_2<3>v" "A_2_3v"
"A_2<2>v" "A_2_2v"
"A_2<1>v" "A_2_1v"
"A_2<0>v" "A_2_0v"
"G04v" "G04v"
"WD_8of32<15>v" "WD_8of32_15v"
"WD_8of32<14>v" "WD_8of32_14v"
"WD_8of32<13>v" "WD_8of32_13v"
"WD_8of32<12>v" "WD_8of32_12v"
"G03v" "G03v"
"RW<1>v" "RW_1v"
"RW<0>v" "RW_0v"
"B0_1<3>v" "B0_1_3v"
"B0_1<2>v" "B0_1_2v"
"B0_1<1>v" "B0_1_1v"
"B0_1<0>v" "B0_1_0v"
"WD_8of32<11>v" "WD_8of32_11v"
"WD_8of32<10>v" "WD_8of32_10v"
"WD_8of32<9>v" "WD_8of32_9v"
"WD_8of32<8>v" "WD_8of32_8v"
"~R1_3<3>v" "\\~R1_3_3v"
"~R1_3<2>v" "\\~R1_3_2v"
"~R1_3<1>v" "\\~R1_3_1v"
"~R1_3<0>v" "\\~R1_3_0v"
"G01v" "G01v"
"~R0_4<3>v" "\\~R0_4_3v"
"~R0_4<2>v" "\\~R0_4_2v"
"~R0_4<1>v" "\\~R0_4_1v"
"~R0_4<0>v" "\\~R0_4_0v"
"S_1<7>v" "S_1_7v"
"S_1<6>v" "S_1_6v"
"S_1<5>v" "S_1_5v"
"S_1<4>v" "S_1_4v"
"S_1<3>v" "S_1_3v"
"S_1<2>v" "S_1_2v"
"S_1<1>v" "S_1_1v"
"S_1<0>v" "S_1_0v"
"RD_8of32<31>v" "RD_8of32_31v"
"RD_8of32<30>v" "RD_8of32_30v"
"RD_8of32<29>v" "RD_8of32_29v"
"RD_8of32<28>v" "RD_8of32_28v"
"RD_8of32<23>v" "RD_8of32_23v"
"RD_8of32<22>v" "RD_8of32_22v"
"RD_8of32<21>v" "RD_8of32_21v"
"RD_8of32<20>v" "RD_8of32_20v"
"RD_8of32<19>v" "RD_8of32_19v"
"RD_8of32<18>v" "RD_8of32_18v"
"RD_8of32<17>v" "RD_8of32_17v"
"RD_8of32<16>v" "RD_8of32_16v"
"RD_8of32<15>v" "RD_8of32_15v"
"RD_8of32<14>v" "RD_8of32_14v"
"RD_8of32<13>v" "RD_8of32_13v"
"RD_8of32<12>v" "RD_8of32_12v"
"RD_8of32<11>v" "RD_8of32_11v"
"RD_8of32<10>v" "RD_8of32_10v"
"RD_8of32<9>v" "RD_8of32_9v"
"RD_8of32<8>v" "RD_8of32_8v"
"RD_8of32<7>v" "RD_8of32_7v"
"RD_8of32<6>v" "RD_8of32_6v"
"RD_8of32<5>v" "RD_8of32_5v"
"RD_8of32<4>v" "RD_8of32_4v"
"RD_8of32<3>v" "RD_8of32_3v"
"RD_8of32<2>v" "RD_8of32_2v"
"RD_8of32<1>v" "RD_8of32_1v"
"RD_8of32<0>v" "RD_8of32_0v"
"~R0_3<3>v" "\\~R0_3_3v"
"~R0_3<2>v" "\\~R0_3_2v"
"~R0_3<1>v" "\\~R0_3_1v"
"~R0_3<0>v" "\\~R0_3_0v"
"net163v" "net163v"
"Resetv" "Resetv"
"S_2<7>v" "S_2_7v"
"S_2<6>v" "S_2_6v"
"S_2<5>v" "S_2_5v"
"S_2<4>v" "S_2_4v"
"S_2<3>v" "S_2_3v"
"S_2<2>v" "S_2_2v"
"S_2<1>v" "S_2_1v"
"S_2<0>v" "S_2_0v"
"S_4<7>v" "S_4_7v"
"S_4<6>v" "S_4_6v"
"S_4<5>v" "S_4_5v"
"S_4<4>v" "S_4_4v"
"S_4<3>v" "S_4_3v"
"S_4<2>v" "S_4_2v"
"S_4<1>v" "S_4_1v"
"S_4<0>v" "S_4_0v"
"ckbotv" "ckbotv"
"W1_3<3>v" "W1_3_3v"
"W1_3<2>v" "W1_3_2v"
"W1_3<1>v" "W1_3_1v"
"W1_3<0>v" "W1_3_0v"
"RD_Ack<5>v" "RD_Ack_5v"
"RD_Ack<4>v" "RD_Ack_4v"
"~R1_1<3>v" "\\~R1_1_3v"
"~R1_1<2>v" "\\~R1_1_2v"
"~R1_1<1>v" "\\~R1_1_1v"
"~R1_1<0>v" "\\~R1_1_0v"
"RD_Ack<7>v" "RD_Ack_7v"
"RD_Ack<6>v" "RD_Ack_6v"
"RD_Ack<3>v" "RD_Ack_3v"
"RD_Ack<2>v" "RD_Ack_2v"
"RD_Ack<1>v" "RD_Ack_1v"
"RD_Ack<0>v" "RD_Ack_0v"
"A_3<63>v" "A_3_63v"
"A_3<62>v" "A_3_62v"
"A_3<61>v" "A_3_61v"
"A_3<60>v" "A_3_60v"
"A_3<59>v" "A_3_59v"
"A_3<58>v" "A_3_58v"
"A_3<57>v" "A_3_57v"
"A_3<56>v" "A_3_56v"
"A_3<55>v" "A_3_55v"
"A_3<54>v" "A_3_54v"
"A_3<53>v" "A_3_53v"
"A_3<52>v" "A_3_52v"
"A_3<51>v" "A_3_51v"
"A_3<50>v" "A_3_50v"
"A_3<49>v" "A_3_49v"
"A_3<48>v" "A_3_48v"
"A_3<47>v" "A_3_47v"
"A_3<46>v" "A_3_46v"
"A_3<45>v" "A_3_45v"
"A_3<44>v" "A_3_44v"
"A_3<43>v" "A_3_43v"
"A_3<42>v" "A_3_42v"
"A_3<41>v" "A_3_41v"
"A_3<40>v" "A_3_40v"
"A_3<39>v" "A_3_39v"
"A_3<38>v" "A_3_38v"
"A_3<37>v" "A_3_37v"
"A_3<36>v" "A_3_36v"
"A_3<35>v" "A_3_35v"
"A_3<34>v" "A_3_34v"
"A_3<33>v" "A_3_33v"
"A_3<32>v" "A_3_32v"
"A_3<31>v" "A_3_31v"
"A_3<30>v" "A_3_30v"
"A_3<29>v" "A_3_29v"
"A_3<28>v" "A_3_28v"
"A_3<27>v" "A_3_27v"
"A_3<26>v" "A_3_26v"
"A_3<25>v" "A_3_25v"
"A_3<24>v" "A_3_24v"
"A_3<23>v" "A_3_23v"
"A_3<22>v" "A_3_22v"
"A_3<21>v" "A_3_21v"
"A_3<20>v" "A_3_20v"
"A_3<19>v" "A_3_19v"
"A_3<18>v" "A_3_18v"
"A_3<17>v" "A_3_17v"
"A_3<16>v" "A_3_16v"
"A_3<15>v" "A_3_15v"
"A_3<14>v" "A_3_14v"
"A_3<13>v" "A_3_13v"
"A_3<12>v" "A_3_12v"
"A_3<11>v" "A_3_11v"
"A_3<10>v" "A_3_10v"
"A_3<9>v" "A_3_9v"
"A_3<8>v" "A_3_8v"
"A_3<7>v" "A_3_7v"
"A_3<6>v" "A_3_6v"
"A_3<5>v" "A_3_5v"
"A_3<4>v" "A_3_4v"
"A_3<3>v" "A_3_3v"
"A_3<2>v" "A_3_2v"
"A_3<1>v" "A_3_1v"
"A_3<0>v" "A_3_0v"
"B1_3<3>v" "B1_3_3v"
"B1_3<2>v" "B1_3_2v"
"B1_3<1>v" "B1_3_1v"
"B1_3<0>v" "B1_3_0v"
"Ctrl_Ack<4>v" "Ctrl_Ack_4v"
"Ctrl_Ack<3>v" "Ctrl_Ack_3v"
"Ctrl_Ack<2>v" "Ctrl_Ack_2v"
"Ctrl_Ack<1>v" "Ctrl_Ack_1v"
"Ctrl_Ack<0>v" "Ctrl_Ack_0v"
"WD_Ack<1>v" "WD_Ack_1v"
"WD_Ack<0>v" "WD_Ack_0v"
"W1_2<3>v" "W1_2_3v"
"W1_2<2>v" "W1_2_2v"
"W1_2<1>v" "W1_2_1v"
"W1_2<0>v" "W1_2_0v"
"W1_1<3>v" "W1_1_3v"
"W1_1<2>v" "W1_1_2v"
"W1_1<1>v" "W1_1_1v"
"W1_1<0>v" "W1_1_0v"
"WD_8of32<31>v" "WD_8of32_31v"
"WD_8of32<30>v" "WD_8of32_30v"
"WD_8of32<29>v" "WD_8of32_29v"
"WD_8of32<28>v" "WD_8of32_28v"
"WD_8of32<27>v" "WD_8of32_27v"
"WD_8of32<26>v" "WD_8of32_26v"
"WD_8of32<25>v" "WD_8of32_25v"
"WD_8of32<24>v" "WD_8of32_24v"
"WD_8of32<23>v" "WD_8of32_23v"
"WD_8of32<22>v" "WD_8of32_22v"
"WD_8of32<21>v" "WD_8of32_21v"
"WD_8of32<20>v" "WD_8of32_20v"
"WD_8of32<19>v" "WD_8of32_19v"
"WD_8of32<18>v" "WD_8of32_18v"
"WD_8of32<17>v" "WD_8of32_17v"
"WD_8of32<16>v" "WD_8of32_16v"
"WD_8of32<7>v" "WD_8of32_7v"
"WD_8of32<6>v" "WD_8of32_6v"
"WD_8of32<5>v" "WD_8of32_5v"
"WD_8of32<4>v" "WD_8of32_4v"
"WD_8of32<3>v" "WD_8of32_3v"
"WD_8of32<2>v" "WD_8of32_2v"
"WD_8of32<1>v" "WD_8of32_1v"
"WD_8of32<0>v" "WD_8of32_0v"
"A_1<63>v" "A_1_63v"
"A_1<62>v" "A_1_62v"
"A_1<61>v" "A_1_61v"
"A_1<60>v" "A_1_60v"
"A_1<59>v" "A_1_59v"
"A_1<58>v" "A_1_58v"
"A_1<57>v" "A_1_57v"
"A_1<56>v" "A_1_56v"
"A_1<55>v" "A_1_55v"
"A_1<54>v" "A_1_54v"
"A_1<53>v" "A_1_53v"
"A_1<52>v" "A_1_52v"
"A_1<51>v" "A_1_51v"
"A_1<50>v" "A_1_50v"
"A_1<49>v" "A_1_49v"
"A_1<48>v" "A_1_48v"
"A_1<47>v" "A_1_47v"
"A_1<46>v" "A_1_46v"
"A_1<45>v" "A_1_45v"
"A_1<44>v" "A_1_44v"
"A_1<43>v" "A_1_43v"
"A_1<42>v" "A_1_42v"
"A_1<41>v" "A_1_41v"
"A_1<40>v" "A_1_40v"
"A_1<39>v" "A_1_39v"
"A_1<38>v" "A_1_38v"
"A_1<37>v" "A_1_37v"
"A_1<36>v" "A_1_36v"
"A_1<35>v" "A_1_35v"
"A_1<34>v" "A_1_34v"
"A_1<33>v" "A_1_33v"
"A_1<32>v" "A_1_32v"
"A_1<31>v" "A_1_31v"
"A_1<30>v" "A_1_30v"
"A_1<29>v" "A_1_29v"
"A_1<28>v" "A_1_28v"
"A_1<27>v" "A_1_27v"
"A_1<26>v" "A_1_26v"
"A_1<25>v" "A_1_25v"
"A_1<24>v" "A_1_24v"
"A_1<23>v" "A_1_23v"
"A_1<22>v" "A_1_22v"
"A_1<21>v" "A_1_21v"
"A_1<20>v" "A_1_20v"
"A_1<19>v" "A_1_19v"
"A_1<18>v" "A_1_18v"
"A_1<17>v" "A_1_17v"
"A_1<16>v" "A_1_16v"
"A_1<15>v" "A_1_15v"
"A_1<14>v" "A_1_14v"
"A_1<13>v" "A_1_13v"
"A_1<12>v" "A_1_12v"
"A_1<11>v" "A_1_11v"
"A_1<10>v" "A_1_10v"
"A_1<9>v" "A_1_9v"
"A_1<8>v" "A_1_8v"
"A_1<7>v" "A_1_7v"
"A_1<6>v" "A_1_6v"
"A_1<5>v" "A_1_5v"
"A_1<4>v" "A_1_4v"
"A_1<3>v" "A_1_3v"
"A_1<2>v" "A_1_2v"
"A_1<1>v" "A_1_1v"
"A_1<0>v" "A_1_0v"
"ValAddrv" "ValAddrv"
"~R1_4<3>v" "\\~R1_4_3v"
"~R1_4<2>v" "\\~R1_4_2v"
"~R1_4<1>v" "\\~R1_4_1v"
"~R1_4<0>v" "\\~R1_4_0v"
"WD_Ack<7>v" "WD_Ack_7v"
"WD_Ack<6>v" "WD_Ack_6v"
"WD_Ack<3>v" "WD_Ack_3v"
"WD_Ack<2>v" "WD_Ack_2v"
"~R0_1<3>v" "\\~R0_1_3v"
"~R0_1<2>v" "\\~R0_1_2v"
"~R0_1<1>v" "\\~R0_1_1v"
"~R0_1<0>v" "\\~R0_1_0v"
"W0_2<3>v" "W0_2_3v"
"W0_2<2>v" "W0_2_2v"
"W0_2<1>v" "W0_2_1v"
"W0_2<0>v" "W0_2_0v"
"W0_3<3>v" "W0_3_3v"
"W0_3<2>v" "W0_3_2v"
"W0_3<1>v" "W0_3_1v"
"W0_3<0>v" "W0_3_0v"
"W0_4<3>v" "W0_4_3v"
"W0_4<2>v" "W0_4_2v"
"W0_4<1>v" "W0_4_1v"
"W0_4<0>v" "W0_4_0v"
"~R0_2<3>v" "\\~R0_2_3v"
"~R0_2<2>v" "\\~R0_2_2v"
"~R0_2<1>v" "\\~R0_2_1v"
"~R0_2<0>v" "\\~R0_2_0v"
"W0_1<3>v" "W0_1_3v"
"W0_1<2>v" "W0_1_2v"
"W0_1<1>v" "W0_1_1v"
"W0_1<0>v" "W0_1_0v"
"ck<0>v" "ck_0v"
"ck<1>v" "ck_1v"
"B0_2<3>v" "B0_2_3v"
"B0_2<2>v" "B0_2_2v"
"B0_2<1>v" "B0_2_1v"
"B0_2<0>v" "B0_2_0v"
"B1_2<3>v" "B1_2_3v"
"B1_2<2>v" "B1_2_2v"
"B1_2<1>v" "B1_2_1v"
"B1_2<0>v" "B1_2_0v"
"B1_4<3>v" "B1_4_3v"
"B1_4<2>v" "B1_4_2v"
"B1_4<1>v" "B1_4_1v"
"B1_4<0>v" "B1_4_0v"
"G02v" "G02v"
"B1_1<3>v" "B1_1_3v"
"B1_1<2>v" "B1_1_2v"
"B1_1<1>v" "B1_1_1v"
"B1_1<0>v" "B1_1_0v"
"cktopv" "cktopv"
"net161v" "net161v"
"S_3<7>v" "S_3_7v"
"S_3<6>v" "S_3_6v"
"S_3<5>v" "S_3_5v"
"S_3<4>v" "S_3_4v"
"S_3<3>v" "S_3_3v"
"S_3<2>v" "S_3_2v"
"S_3<1>v" "S_3_1v"
"S_3<0>v" "S_3_0v"
"outAckv" "outAckv"
"W1_4<3>v" "W1_4_3v"
"W1_4<2>v" "W1_4_2v"
"W1_4<1>v" "W1_4_1v"
"W1_4<0>v" "W1_4_0v"
"B0_4<3>v" "B0_4_3v"
"B0_4<2>v" "B0_4_2v"
"B0_4<1>v" "B0_4_1v"
"B0_4<0>v" "B0_4_0v"
"net160v" "net160v"
"A_4<63>v" "A_4_63v"
"A_4<62>v" "A_4_62v"
"A_4<61>v" "A_4_61v"
"A_4<60>v" "A_4_60v"
"A_4<59>v" "A_4_59v"
"A_4<58>v" "A_4_58v"
"A_4<57>v" "A_4_57v"
"A_4<56>v" "A_4_56v"
"A_4<55>v" "A_4_55v"
"A_4<54>v" "A_4_54v"
"A_4<53>v" "A_4_53v"
"A_4<52>v" "A_4_52v"
"A_4<51>v" "A_4_51v"
"A_4<50>v" "A_4_50v"
"A_4<49>v" "A_4_49v"
"A_4<48>v" "A_4_48v"
"A_4<47>v" "A_4_47v"
"A_4<46>v" "A_4_46v"
"A_4<45>v" "A_4_45v"
"A_4<44>v" "A_4_44v"
"A_4<43>v" "A_4_43v"
"A_4<42>v" "A_4_42v"
"A_4<41>v" "A_4_41v"
"A_4<40>v" "A_4_40v"
"A_4<39>v" "A_4_39v"
"A_4<38>v" "A_4_38v"
"A_4<37>v" "A_4_37v"
"A_4<36>v" "A_4_36v"
"A_4<35>v" "A_4_35v"
"A_4<34>v" "A_4_34v"
"A_4<33>v" "A_4_33v"
"A_4<32>v" "A_4_32v"
"A_4<31>v" "A_4_31v"
"A_4<30>v" "A_4_30v"
"A_4<29>v" "A_4_29v"
"A_4<28>v" "A_4_28v"
"A_4<27>v" "A_4_27v"
"A_4<26>v" "A_4_26v"
"A_4<25>v" "A_4_25v"
"A_4<24>v" "A_4_24v"
"A_4<23>v" "A_4_23v"
"A_4<22>v" "A_4_22v"
"A_4<21>v" "A_4_21v"
"A_4<20>v" "A_4_20v"
"A_4<19>v" "A_4_19v"
"A_4<18>v" "A_4_18v"
"A_4<17>v" "A_4_17v"
"A_4<16>v" "A_4_16v"
"A_4<15>v" "A_4_15v"
"A_4<14>v" "A_4_14v"
"A_4<13>v" "A_4_13v"
"A_4<12>v" "A_4_12v"
"A_4<11>v" "A_4_11v"
"A_4<10>v" "A_4_10v"
"A_4<9>v" "A_4_9v"
"A_4<8>v" "A_4_8v"
"A_4<7>v" "A_4_7v"
"A_4<6>v" "A_4_6v"
"A_4<5>v" "A_4_5v"
"A_4<4>v" "A_4_4v"
"A_4<3>v" "A_4_3v"
"A_4<2>v" "A_4_2v"
"A_4<1>v" "A_4_1v"
"A_4<0>v" "A_4_0v"
