HEADER
"PSFversion" "1.00"
"I18n" "nand4_1x"
"I19<3>v" "I19_3v"
"I14n" "TH44"
"I19<2>v" "I19_2v"
"I19<1>v" "I19_1v"
"I19<0>v" "I19_0v"
"I19<3>n I19<2>n I19<1>n I19<0>n" "nand_1x"
"1of4_1<3>v" ":1v"
"1of4_1<2>v" ":2v"
"1of4_1<1>v" ":3v"
"1of4_1<0>v" ":4v"
"1of4_2<3>v" ":5v"
"1of4_2<2>v" ":6v"
"1of4_2<1>v" ":7v"
"1of4_2<0>v" ":8v"
"1of4_3<3>v" ":9v"
"1of4_3<2>v" ":10v"
"1of4_3<1>v" ":11v"
"1of4_3<0>v" ":12v"
"1of4_4<3>v" ":13v"
"1of4_4<2>v" ":14v"
"1of4_4<1>v" ":15v"
"1of4_4<0>v" ":16v"
"1of4_5<3>v" ":17v"
"1of4_5<2>v" ":18v"
"1of4_5<1>v" ":19v"
"1of4_5<0>v" ":20v"
"AddrAck<3>v" ":21v"
"AddrAck<2>v" ":22v"
"AddrAck<1>v" ":23v"
"AddrAck<0>v" ":24v"
"InAck<1>v" ":25v"
"InAck<0>v" ":26v"
"InAck<3>v" ":27v"
"InAck<2>v" ":28v"
"OutAckv" ":29v"
"RW<1>v" ":30v"
"RW<0>v" ":31v"
"Resetv" ":32v"
"ValAddrv" ":33v"
