HEADER
"PSFversion" "1.00"
"M5n M4n M1n M0n" "NCSU_TechLib_FreePDK15_nfet_spectre"
"M3n M2n" "NCSU_TechLib_FreePDK15_pfet_spectre"
"Av" ":1v"
"B0v" ":2v"
"B1v" ":3v"
