HEADER
"PSFversion" "1.00"
"B0v" "B0v"
"Av" "Av"
"Q0v" "Q0v"
"Q1v" "Q1v"
"B1v" "B1v"
