HEADER
"PSFversion" "1.00"
"I2n" "nor_1x"
"I6n" "xor_xnor"
"I8n I7n" "inv_1x"
"I1n I0n" "TH33"
"L0v" ":1v"
"L1v" ":2v"
"Lackv" ":3v"
"Rackv" ":4v"
"~R0v" ":5v"
"~R1v" ":6v"
