HEADER
"PSFversion" "1.00"
"I2n" "nand_1x"
"I1n I0n" "_sub81"
"L0v" ":1v"
"L1v" ":2v"
"Rackv" ":3v"
"~Lackv" ":4v"
"~R0v" ":5v"
"~R1v" ":6v"
