HEADER
"PSFversion" "1.00"
"1of4_3<1>v" "_1of4_3_1v"
"net23v" "net23v"
"1of4_3<0>v" "_1of4_3_0v"
"A<63>v" "A_63v"
"A<62>v" "A_62v"
"A<61>v" "A_61v"
"A<60>v" "A_60v"
"A<59>v" "A_59v"
"A<58>v" "A_58v"
"A<57>v" "A_57v"
"A<56>v" "A_56v"
"A<55>v" "A_55v"
"A<54>v" "A_54v"
"A<53>v" "A_53v"
"A<52>v" "A_52v"
"A<51>v" "A_51v"
"A<50>v" "A_50v"
"A<49>v" "A_49v"
"A<48>v" "A_48v"
"A<47>v" "A_47v"
"A<46>v" "A_46v"
"A<45>v" "A_45v"
"A<44>v" "A_44v"
"A<43>v" "A_43v"
"A<42>v" "A_42v"
"A<41>v" "A_41v"
"A<40>v" "A_40v"
"A<39>v" "A_39v"
"A<38>v" "A_38v"
"A<37>v" "A_37v"
"A<36>v" "A_36v"
"A<35>v" "A_35v"
"A<34>v" "A_34v"
"A<33>v" "A_33v"
"A<32>v" "A_32v"
"A<31>v" "A_31v"
"A<30>v" "A_30v"
"A<29>v" "A_29v"
"A<28>v" "A_28v"
"A<27>v" "A_27v"
"A<26>v" "A_26v"
"A<25>v" "A_25v"
"A<24>v" "A_24v"
"A<23>v" "A_23v"
"A<22>v" "A_22v"
"A<21>v" "A_21v"
"A<20>v" "A_20v"
"A<19>v" "A_19v"
"A<18>v" "A_18v"
"A<17>v" "A_17v"
"A<16>v" "A_16v"
"A<15>v" "A_15v"
"A<14>v" "A_14v"
"A<13>v" "A_13v"
"A<12>v" "A_12v"
"A<11>v" "A_11v"
"A<10>v" "A_10v"
"A<9>v" "A_9v"
"A<8>v" "A_8v"
"A<7>v" "A_7v"
"A<6>v" "A_6v"
"A<5>v" "A_5v"
"A<4>v" "A_4v"
"A<3>v" "A_3v"
"A<2>v" "A_2v"
"A<1>v" "A_1v"
"A<0>v" "A_0v"
"1of4_2<3>v" "_1of4_2_3v"
"1of4_2<2>v" "_1of4_2_2v"
"1of4_2<1>v" "_1of4_2_1v"
"1of4_2<0>v" "_1of4_2_0v"
"Env" "Env"
"net24<0>v" "net24_0v"
"net24<1>v" "net24_1v"
"S<7>v" "S_7v"
"S<6>v" "S_6v"
"S<5>v" "S_5v"
"S<4>v" "S_4v"
"S<3>v" "S_3v"
"S<2>v" "S_2v"
"S<1>v" "S_1v"
"S<0>v" "S_0v"
"net22v" "net22v"
"1of4_3<3>v" "_1of4_3_3v"
"1of4_3<2>v" "_1of4_3_2v"
"1of4_1<3>v" "_1of4_1_3v"
"1of4_1<2>v" "_1of4_1_2v"
"1of4_1<1>v" "_1of4_1_1v"
"1of4_1<0>v" "_1of4_1_0v"
"1of4_4<3>v" "_1of4_4_3v"
"1of4_4<2>v" "_1of4_4_2v"
"1of4_4<1>v" "_1of4_4_1v"
"1of4_4<0>v" "_1of4_4_0v"
