HEADER
"PSFversion" "1.00"
"V1n V0n" "UCD_Analog_Parts_vdc_spectre"
"I15<4>v" "I15_4v"
"IBankn" "_sub131"
"I15<3>v" "I15_3v"
"I15<2>v" "I15_2v"
"I15<1>v" "I15_1v"
"I15<0>v" "I15_0v"
"I11<7>v" "I11_7v"
"I11<6>v" "I11_6v"
"I11<5>v" "I11_5v"
"I11<4>v" "I11_4v"
"I11<3>v" "I11_3v"
"I11<2>v" "I11_2v"
"I11<1>v" "I11_1v"
"I11<0>v" "I11_0v"
"I10<7>v" "I10_7v"
"I10<6>v" "I10_6v"
"I10<5>v" "I10_5v"
"I10<4>v" "I10_4v"
"I10<3>v" "I10_3v"
"I10<2>v" "I10_2v"
"I10<1>v" "I10_1v"
"I10<0>v" "I10_0v"
"I16<1>v" "I16_1v"
"I16<0>v" "I16_0v"
"I14<19>v" "I14_19v"
"I14<18>v" "I14_18v"
"I14<17>v" "I14_17v"
"I14<16>v" "I14_16v"
"I14<15>v" "I14_15v"
"I14<14>v" "I14_14v"
"I14<13>v" "I14_13v"
"I14<12>v" "I14_12v"
"I14<11>v" "I14_11v"
"I14<10>v" "I14_10v"
"I14<9>v" "I14_9v"
"I14<8>v" "I14_8v"
"I14<7>v" "I14_7v"
"I14<6>v" "I14_6v"
"I14<5>v" "I14_5v"
"I14<4>v" "I14_4v"
"I14<3>v" "I14_3v"
"I14<2>v" "I14_2v"
"I14<1>v" "I14_1v"
"I14<0>v" "I14_0v"
"I6<31>v" "I6_31v"
"I6<30>v" "I6_30v"
"I6<29>v" "I6_29v"
"I6<28>v" "I6_28v"
"I6<27>v" "I6_27v"
"I6<26>v" "I6_26v"
"I6<25>v" "I6_25v"
"I6<24>v" "I6_24v"
"I6<23>v" "I6_23v"
"I6<22>v" "I6_22v"
"I6<21>v" "I6_21v"
"I6<20>v" "I6_20v"
"I6<19>v" "I6_19v"
"I6<18>v" "I6_18v"
"I6<17>v" "I6_17v"
"I6<16>v" "I6_16v"
"I6<15>v" "I6_15v"
"I6<14>v" "I6_14v"
"I6<13>v" "I6_13v"
"I6<12>v" "I6_12v"
"I6<11>v" "I6_11v"
"I6<10>v" "I6_10v"
"I6<9>v" "I6_9v"
"I6<8>v" "I6_8v"
"I6<7>v" "I6_7v"
"I6<6>v" "I6_6v"
"I6<5>v" "I6_5v"
"I6<4>v" "I6_4v"
"I6<3>v" "I6_3v"
"I6<2>v" "I6_2v"
"I6<1>v" "I6_1v"
"I6<0>v" "I6_0v"
"I5<31>v" "I5_31v"
"I5<30>v" "I5_30v"
"I5<29>v" "I5_29v"
"I5<28>v" "I5_28v"
"I5<27>v" "I5_27v"
"I5<26>v" "I5_26v"
"I5<25>v" "I5_25v"
"I5<24>v" "I5_24v"
"I5<23>v" "I5_23v"
"I5<22>v" "I5_22v"
"I5<21>v" "I5_21v"
"I5<20>v" "I5_20v"
"I5<19>v" "I5_19v"
"I5<18>v" "I5_18v"
"I5<17>v" "I5_17v"
"I5<16>v" "I5_16v"
"I5<15>v" "I5_15v"
"I5<14>v" "I5_14v"
"I5<13>v" "I5_13v"
"I5<12>v" "I5_12v"
"I5<11>v" "I5_11v"
"I5<10>v" "I5_10v"
"I5<9>v" "I5_9v"
"I5<8>v" "I5_8v"
"I5<7>v" "I5_7v"
"I5<6>v" "I5_6v"
"I5<5>v" "I5_5v"
"I5<4>v" "I5_4v"
"I5<3>v" "I5_3v"
"I5<2>v" "I5_2v"
"I5<1>v" "I5_1v"
"I5<0>v" "I5_0v"
"I15<4>n I15<3>n I15<2>n I15<1>n I15<0>n I11<7>n I11<6>n I11<5>n I11<4>n I11<3>n I11<2>n I11<1>n I11<0>n I10<7>n I10<6>n I10<5>n I10<4>n I10<3>n I10<2>n I10<1>n I10<0>n I16<1>n I16<0>n I14<19>n I14<18>n I14<17>n I14<16>n I14<15>n I14<14>n I14<13>n I14<12>n I14<11>n I14<10>n I14<9>n I14<8>n I14<7>n I14<6>n I14<5>n I14<4>n I14<3>n I14<2>n I14<1>n I14<0>n I13n I6<31>n I6<30>n I6<29>n I6<28>n I6<27>n I6<26>n I6<25>n I6<24>n I6<23>n I6<22>n I6<21>n I6<20>n I6<19>n I6<18>n I6<17>n I6<16>n I6<15>n I6<14>n I6<13>n I6<12>n I6<11>n I6<10>n I6<9>n I6<8>n I6<7>n I6<6>n I6<5>n I6<4>n I6<3>n I6<2>n I6<1>n I6<0>n I5<31>n I5<30>n I5<29>n I5<28>n I5<27>n I5<26>n I5<25>n I5<24>n I5<23>n I5<22>n I5<21>n I5<20>n I5<19>n I5<18>n I5<17>n I5<16>n I5<15>n I5<14>n I5<13>n I5<12>n I5<11>n I5<10>n I5<9>n I5<8>n I5<7>n I5<6>n I5<5>n I5<4>n I5<3>n I5<2>n I5<1>n I5<0>n" "inv_1xt"
