HEADER
"PSFversion" "1.00"
"I7n I6n I5n I4n I3n I2n I1n I0n" "_sub29"
"B0v" ":1v"
"B1v" ":2v"
"A<31>v" ":3v"
"A<30>v" ":4v"
"A<29>v" ":5v"
"A<28>v" ":6v"
"A<27>v" ":7v"
"A<26>v" ":8v"
"A<25>v" ":9v"
"A<24>v" ":10v"
"A<23>v" ":11v"
"A<22>v" ":12v"
"A<21>v" ":13v"
"A<20>v" ":14v"
"A<19>v" ":15v"
"A<18>v" ":16v"
"A<17>v" ":17v"
"A<16>v" ":18v"
"A<15>v" ":19v"
"A<14>v" ":20v"
"A<13>v" ":21v"
"A<12>v" ":22v"
"A<11>v" ":23v"
"A<10>v" ":24v"
"A<9>v" ":25v"
"A<8>v" ":26v"
"A<7>v" ":27v"
"A<6>v" ":28v"
"A<5>v" ":29v"
"A<4>v" ":30v"
"A<3>v" ":31v"
"A<2>v" ":32v"
"A<1>v" ":33v"
"A<0>v" ":34v"
