HEADER
"PSFversion" "1.00"
"I3n I1n I2n I0n" "_sub145"
"M0n M1n M2n M8n M9n M10n M11n M12n M13n M14n M15n M16n M17n M18n M19n M3n" "NCSU_TechLib_FreePDK15_nfet_spectre"
"I4n I5n I6n I7n" "_sub146"
"I11n I10n" "nand4_1x"
"C7n C6n C5n C4n C3n C2n C1n C0n" "UCD_Analog_Parts_cap_spectre"
"A<31>v" ":1v"
"A<30>v" ":2v"
"A<29>v" ":3v"
"A<28>v" ":4v"
"A<27>v" ":5v"
"A<26>v" ":6v"
"A<25>v" ":7v"
"A<24>v" ":8v"
"A<23>v" ":9v"
"A<22>v" ":10v"
"A<21>v" ":11v"
"A<20>v" ":12v"
"A<19>v" ":13v"
"A<18>v" ":14v"
"A<17>v" ":15v"
"A<16>v" ":16v"
"A<15>v" ":17v"
"A<14>v" ":18v"
"A<13>v" ":19v"
"A<12>v" ":20v"
"A<11>v" ":21v"
"A<10>v" ":22v"
"A<9>v" ":23v"
"A<8>v" ":24v"
"A<7>v" ":25v"
"A<6>v" ":26v"
"A<5>v" ":27v"
"A<4>v" ":28v"
"A<3>v" ":29v"
"A<2>v" ":30v"
"A<1>v" ":31v"
"A<0>v" ":32v"
"B0v" ":33v"
"B1v" ":34v"
"S<3>v" ":35v"
"S<2>v" ":36v"
"S<1>v" ":37v"
"S<0>v" ":38v"
"W0v" ":39v"
"W1v" ":40v"
"SM0v" ":41v"
"SM1v" ":42v"
