HEADER
"PSFversion" "1.00"
"net65v" "net65v"
"B1P4v" "B1P4v"
"net62v" "net62v"
"B1P3v" "B1P3v"
"B0P4v" "B0P4v"
"net63v" "net63v"
"S<3>v" "S_3v"
"S<2>v" "S_2v"
"S<1>v" "S_1v"
"S<0>v" "S_0v"
"B1_nandDv" "B1_nandDv"
"B0_nandDv" "B0_nandDv"
"B1_nandCv" "B1_nandCv"
"B0_nandCv" "B0_nandCv"
"B1_nandAv" "B1_nandAv"
"B1_nandBv" "B1_nandBv"
"B0_nandBv" "B0_nandBv"
"B0_nandAv" "B0_nandAv"
"net67v" "net67v"
"B1_Pass0v" "B1_Pass0v"
"B0_Pass3v" "B0_Pass3v"
"net64v" "net64v"
"B0_Pass2v" "B0_Pass2v"
"B0_Pass0v" "B0_Pass0v"
"B1_Pass1v" "B1_Pass1v"
"B1_Pass2v" "B1_Pass2v"
"B1_Pass3v" "B1_Pass3v"
"B0_Pass1v" "B0_Pass1v"
"B0P1v" "B0P1v"
"B1P1v" "B1P1v"
"B0P2v" "B0P2v"
"B0v" "B0v"
"B1P2v" "B1P2v"
"B0P3v" "B0P3v"
"SM1v" "SM1v"
"A<31>v" "A_31v"
"A<30>v" "A_30v"
"A<29>v" "A_29v"
"A<28>v" "A_28v"
"A<27>v" "A_27v"
"A<26>v" "A_26v"
"A<25>v" "A_25v"
"A<24>v" "A_24v"
"A<23>v" "A_23v"
"A<22>v" "A_22v"
"A<21>v" "A_21v"
"A<20>v" "A_20v"
"A<19>v" "A_19v"
"A<18>v" "A_18v"
"A<17>v" "A_17v"
"A<16>v" "A_16v"
"A<15>v" "A_15v"
"A<14>v" "A_14v"
"A<13>v" "A_13v"
"A<12>v" "A_12v"
"A<11>v" "A_11v"
"A<10>v" "A_10v"
"A<9>v" "A_9v"
"A<8>v" "A_8v"
"A<7>v" "A_7v"
"A<6>v" "A_6v"
"A<5>v" "A_5v"
"A<4>v" "A_4v"
"A<3>v" "A_3v"
"A<2>v" "A_2v"
"A<1>v" "A_1v"
"A<0>v" "A_0v"
"net60v" "net60v"
"net66v" "net66v"
"net61v" "net61v"
"W0v" "W0v"
"B1v" "B1v"
"W1v" "W1v"
"SM0v" "SM0v"
