HEADER
"PSFversion" "1.00"
"I45n I46n I44n" "nand_1x"
"I54n I53n I52n I51n I50n I49n I47n I48n" "nor_1x"
"I21n I24n I23n I22n" "WCHB"
"I43n I29n" "TH44"
"I37<3>v" "I37_3v"
"I18n I17n I11n I10n I16n I15n I1n I0n" "or_1x"
"I37<2>v" "I37_2v"
"I37<1>v" "I37_1v"
"I37<0>v" "I37_0v"
"I36<3>v" "I36_3v"
"I36<2>v" "I36_2v"
"I36<1>v" "I36_1v"
"I36<0>v" "I36_0v"
"M1<3>v" "M1_3v"
"I37<3>n I37<2>n I37<1>n I37<0>n I36<3>n I36<2>n I36<1>n I36<0>n" "and_1x"
"M1<2>v" "M1_2v"
"M1<1>v" "M1_1v"
"M1<0>v" "M1_0v"
"M0<3>v" "M0_3v"
"M0<2>v" "M0_2v"
"M0<1>v" "M0_1v"
"M0<0>v" "M0_0v"
"I35<3>v" "I35_3v"
"M1<3>n M1<2>n M1<1>n M1<0>n M0<3>n M0<2>n M0<1>n M0<0>n" "NCSU_TechLib_FreePDK15_pfet_spectre"
"I35<2>v" "I35_2v"
"I35<1>v" "I35_1v"
"I35<0>v" "I35_0v"
"I34<3>v" "I34_3v"
"I34<2>v" "I34_2v"
"I34<1>v" "I34_1v"
"I34<0>v" "I34_0v"
"I35<3>n I35<2>n I35<1>n I35<0>n I34<3>n I34<2>n I34<1>n I34<0>n" "inv_1x"
"I64n I63n I62n I56n I61n" "basic_cds_thru_spectre"
"I72<3>v" "I72_3v"
"I65n I58n I38n I57n" "TH22"
"I72<2>v" "I72_2v"
"I72<1>v" "I72_1v"
"I72<0>v" "I72_0v"
"I67<3>v" "I67_3v"
"I72<3>n I72<2>n I72<1>n I72<0>n I71n I70n I69n I68n" "PCHB_FIFO"
"I67<2>v" "I67_2v"
"I67<1>v" "I67_1v"
"I67<0>v" "I67_0v"
"I67<3>n I67<2>n I67<1>n I67<0>n" "_sub23"
"Ackv" ":1v"
"B0<3>v" ":2v"
"B0<2>v" ":3v"
"B0<1>v" ":4v"
"B0<0>v" ":5v"
"B1<3>v" ":6v"
"B1<2>v" ":7v"
"B1<1>v" ":8v"
"B1<0>v" ":9v"
"Gov" ":10v"
"R1_1of4<3>v" ":11v"
"R1_1of4<2>v" ":12v"
"R1_1of4<1>v" ":13v"
"R1_1of4<0>v" ":14v"
"R2_1of4<3>v" ":15v"
"R2_1of4<2>v" ":16v"
"R2_1of4<1>v" ":17v"
"R2_1of4<0>v" ":18v"
"RW<1>v" ":19v"
"RW<0>v" ":20v"
"Resetv" ":21v"
"ValAddrv" ":22v"
"W0<3>v" ":23v"
"W0<2>v" ":24v"
"W0<1>v" ":25v"
"W0<0>v" ":26v"
"W1<3>v" ":27v"
"W1<2>v" ":28v"
"W1<1>v" ":29v"
"W1<0>v" ":30v"
"W1_1of4<3>v" ":31v"
"W1_1of4<2>v" ":32v"
"W1_1of4<1>v" ":33v"
"W1_1of4<0>v" ":34v"
"W2_1of4<3>v" ":35v"
"W2_1of4<2>v" ":36v"
"W2_1of4<1>v" ":37v"
"W2_1of4<0>v" ":38v"
"AckThruBotv" ":39v"
"AckThruTopv" ":40v"
"RAck<1>v" ":41v"
"RAck<0>v" ":42v"
"WAck<1>v" ":43v"
"WAck<0>v" ":44v"
"~R0<3>v" ":45v"
"~R0<2>v" ":46v"
"~R0<1>v" ":47v"
"~R0<0>v" ":48v"
"~R1<3>v" ":49v"
"~R1<2>v" ":50v"
"~R1<1>v" ":51v"
"~R1<0>v" ":52v"
