HEADER
"PSFversion" "1.00"
"net19v" "net19v"
"net22v" "net22v"
"net10v" "net10v"
"~R1v" "\\~R1v"
"net9v" "net9v"
"L0v" "L0v"
"Rackv" "Rackv"
"~R0v" "\\~R0v"
"Lackv" "Lackv"
"L1v" "L1v"
