HEADER
"PSFversion" "1.00"
"Av" "Av"
"Yv" "Yv"
