HEADER
"PSFversion" "1.00"
"net22v" "net22v"
"Bv" "Bv"
"net026v" "net026v"
"Cv" "Cv"
"Yv" "Yv"
"Av" "Av"
