HEADER
"PSFversion" "1.00"
"I5n" "nand_1x"
"I0n I1n I3n I4n I6n I7n I9n I10n" "nor4_1x"
"I2n I8n" "and4_1x"
"X<31>v" ":1v"
"X<30>v" ":2v"
"X<29>v" ":3v"
"X<28>v" ":4v"
"X<27>v" ":5v"
"X<26>v" ":6v"
"X<25>v" ":7v"
"X<24>v" ":8v"
"X<23>v" ":9v"
"X<22>v" ":10v"
"X<21>v" ":11v"
"X<20>v" ":12v"
"X<19>v" ":13v"
"X<18>v" ":14v"
"X<17>v" ":15v"
"X<16>v" ":16v"
"X<15>v" ":17v"
"X<14>v" ":18v"
"X<13>v" ":19v"
"X<12>v" ":20v"
"X<11>v" ":21v"
"X<10>v" ":22v"
"X<9>v" ":23v"
"X<8>v" ":24v"
"X<7>v" ":25v"
"X<6>v" ":26v"
"X<5>v" ":27v"
"X<4>v" ":28v"
"X<3>v" ":29v"
"X<2>v" ":30v"
"X<1>v" ":31v"
"X<0>v" ":32v"
"Yv" ":33v"
