HEADER
"PSFversion" "1.00"
"net016v" "net016v"
"R1iv" "R1iv"
"net020v" "net020v"
"net18v" "net18v"
"Aiv" "Aiv"
"Env" "Env"
"net22v" "net22v"
"net029v" "net029v"
"net026v" "net026v"
"R1i+1v" "R1i\\+1v"
"R0iv" "R0iv"
"R0i+1v" "R0i\\+1v"
