HEADER
"PSFversion" "1.00"
"net016v" "net016v"
"net28v" "net28v"
"net22v" "net22v"
"net022v" "net022v"
"net029v" "net029v"
"Aiv" "Aiv"
"net020v" "net020v"
"net18v" "net18v"
"net026v" "net026v"
"net014v" "net014v"
"Ai+1v" "Ai\\+1v"
"R1i+1v" "R1i\\+1v"
"R1iv" "R1iv"
"R0i+1v" "R0i\\+1v"
"R0iv" "R0iv"
