HEADER
"PSFversion" "1.00"
"net029v" "net029v"
"net026v" "net026v"
"net027v" "net027v"
"net18v" "net18v"
"oEv" "oEv"
"inValidv" "inValidv"
"net22v" "net22v"
"inAckv" "inAckv"
"W1v" "W1v"
"R1iv" "R1iv"
"outAckv" "outAckv"
"B0v" "B0v"
"outValidv" "outValidv"
"R0iv" "R0iv"
"B1v" "B1v"
"W0v" "W0v"
