HEADER
"PSFversion" "1.00"
"net033v" "net033v"
"R1iv" "R1iv"
"inValidv" "inValidv"
"outValidv" "outValidv"
"oEv" "oEv"
"~ackv" "\\~ackv"
"~R0v" "\\~R0v"
"~R1v" "\\~R1v"
"R0i+1v" "R0i\\+1v"
"R0iv" "R0iv"
"Ai+1v" "Ai\\+1v"
"R1i+1v" "R1i\\+1v"
"Aiv" "Aiv"
"net034v" "net034v"
