HEADER
"PSFversion" "1.00"
"R1iv" "R1iv"
"net034v" "net034v"
"net030v" "net030v"
"R0i+1v" "R0i\\+1v"
"net022v" "net022v"
"net019v" "net019v"
"net033v" "net033v"
"net031v" "net031v"
"net032v" "net032v"
"R0iv" "R0iv"
"Aiv" "Aiv"
"R1i+1v" "R1i\\+1v"
"Ai+1v" "Ai\\+1v"
