HEADER
"PSFversion" "1.00"
"net023v" "net023v"
"net22v" "net22v"
"net014v" "net014v"
"Aiv" "Aiv"
"net020v" "net020v"
"net016v" "net016v"
"net18v" "net18v"
"net029v" "net029v"
"net025v" "net025v"
"R1i+1v" "R1i\\+1v"
"net026v" "net026v"
"R0i+1v" "R0i\\+1v"
"W0v" "W0v"
"R1iv" "R1iv"
"W1v" "W1v"
"R0iv" "R0iv"
