HEADER
"PSFversion" "1.00"
"R1v" "R1v"
"L1v" "L1v"
"net23v" "net23v"
"W0v" "W0v"
"L0v" "L0v"
"net22v" "net22v"
"Rackv" "Rackv"
"R0v" "R0v"
"W1v" "W1v"
"Lackv" "Lackv"
