HEADER
"PSFversion" "1.00"
"In<2>v" "In_2v"
"In<1>v" "In_1v"
"In<0>v" "In_0v"
"~Out0<1>v" "\\~Out0_1v"
"~Out1<0>v" "\\~Out1_0v"
"Out0<0>v" "Out0_0v"
"~Out1<1>v" "\\~Out1_1v"
"~Out0<0>v" "\\~Out0_0v"
"Out0<1>v" "Out0_1v"
"Rack<1>v" "Rack_1v"
"Rack<0>v" "Rack_0v"
"nxav" "nxav"
"b1<0>v" "b1_0v"
"Out1<1>v" "Out1_1v"
"Out1<0>v" "Out1_0v"
"b0<0>v" "b0_0v"
"b0<1>v" "b0_1v"
"In<3>v" "In_3v"
"b1<1>v" "b1_1v"
"n<3>v" "n_3v"
"n<2>v" "n_2v"
"n<1>v" "n_1v"
"n<0>v" "n_0v"
"Lackv" "Lackv"
