HEADER
"PSFversion" "1.00"
"Rackv" "Rackv"
"L1v" "L1v"
"L0v" "L0v"
"R0v" "R0v"
"R1v" "R1v"
"Lackv" "Lackv"
