HEADER
"PSFversion" "1.00"
"Av" "Av"
"Bv" "Bv"
"XNORv" "XNORv"
"net11v" "net11v"
"XORv" "XORv"
