HEADER
"PSFversion" "1.00"
"A<31>v" "A[31]v"
"A<30>v" "A[30]v"
"A<29>v" "A[29]v"
"A<28>v" "A[28]v"
"A<27>v" "A[27]v"
"A<26>v" "A[26]v"
"A<25>v" "A[25]v"
"A<24>v" "A[24]v"
"A<23>v" "A[23]v"
"A<22>v" "A[22]v"
"A<21>v" "A[21]v"
"A<20>v" "A[20]v"
"A<19>v" "A[19]v"
"A<18>v" "A[18]v"
"A<17>v" "A[17]v"
"A<16>v" "A[16]v"
"A<15>v" "A[15]v"
"A<14>v" "A[14]v"
"A<13>v" "A[13]v"
"A<12>v" "A[12]v"
"A<11>v" "A[11]v"
"A<10>v" "A[10]v"
"A<9>v" "A[9]v"
"A<8>v" "A[8]v"
"A<7>v" "A[7]v"
"A<6>v" "A[6]v"
"A<5>v" "A[5]v"
"A<4>v" "A[4]v"
"A<3>v" "A[3]v"
"A<2>v" "A[2]v"
"A<1>v" "A[1]v"
"A<0>v" "A[0]v"
"A<31>v" "A[31]v"
"A<30>v" "A[30]v"
"A<29>v" "A[29]v"
"A<28>v" "A[28]v"
"A<27>v" "A[27]v"
"A<26>v" "A[26]v"
"A<25>v" "A[25]v"
"A<24>v" "A[24]v"
"A<23>v" "A[23]v"
"A<22>v" "A[22]v"
"A<21>v" "A[21]v"
"A<20>v" "A[20]v"
"A<19>v" "A[19]v"
"A<18>v" "A[18]v"
"A<17>v" "A[17]v"
"A<16>v" "A[16]v"
"A<15>v" "A[15]v"
"A<14>v" "A[14]v"
"A<13>v" "A[13]v"
"A<12>v" "A[12]v"
"A<11>v" "A[11]v"
"A<10>v" "A[10]v"
"A<9>v" "A[9]v"
"A<8>v" "A[8]v"
"A<7>v" "A[7]v"
"A<6>v" "A[6]v"
"A<5>v" "A[5]v"
"A<4>v" "A[4]v"
"A<3>v" "A[3]v"
"A<2>v" "A[2]v"
"A<1>v" "A[1]v"
"A<0>v" "A[0]v"
