HEADER
"PSFversion" "1.00"
"I3n I2n I1n I0n" "_sub60"
"Ack<3>v" ":1v"
"Ack<2>v" ":2v"
"Ack<1>v" ":3v"
"Ack<0>v" ":4v"
"In_4of16<15>v" ":5v"
"In_4of16<14>v" ":6v"
"In_4of16<13>v" ":7v"
"In_4of16<12>v" ":8v"
"In_4of16<11>v" ":9v"
"In_4of16<10>v" ":10v"
"In_4of16<9>v" ":11v"
"In_4of16<8>v" ":12v"
"In_4of16<7>v" ":13v"
"In_4of16<6>v" ":14v"
"In_4of16<5>v" ":15v"
"In_4of16<4>v" ":16v"
"In_4of16<3>v" ":17v"
"In_4of16<2>v" ":18v"
"In_4of16<1>v" ":19v"
"In_4of16<0>v" ":20v"
"In_Ack<3>v" ":21v"
"In_Ack<2>v" ":22v"
"In_Ack<1>v" ":23v"
"In_Ack<0>v" ":24v"
"Out_4of16<15>v" ":25v"
"Out_4of16<14>v" ":26v"
"Out_4of16<13>v" ":27v"
"Out_4of16<12>v" ":28v"
"Out_4of16<11>v" ":29v"
"Out_4of16<10>v" ":30v"
"Out_4of16<9>v" ":31v"
"Out_4of16<8>v" ":32v"
"Out_4of16<7>v" ":33v"
"Out_4of16<6>v" ":34v"
"Out_4of16<5>v" ":35v"
"Out_4of16<4>v" ":36v"
"Out_4of16<3>v" ":37v"
"Out_4of16<2>v" ":38v"
"Out_4of16<1>v" ":39v"
"Out_4of16<0>v" ":40v"
