HEADER
"PSFversion" "1.00"
"I11n I10n" "TH22"
"I7n I6n I1n I0n" "_sub46"
"I15n I14n I13n I12n" "nand_1x"
"I21n I20n" "inv_1x"
"a<1>v" ":1v"
"a<0>v" ":2v"
"a_ackv" ":3v"
"ackv" ":4v"
"aselv" ":5v"
"b<1>v" ":6v"
"b<0>v" ":7v"
"b_ackv" ":8v"
"bselv" ":9v"
"out<1>v" ":10v"
"out<0>v" ":11v"
