HEADER
"PSFversion" "1.00"
"SM1_0_bit2v" "SM1_0_bit2v"
"W0<3>v" "W0_3v"
"W0<2>v" "W0_2v"
"W0<1>v" "W0_1v"
"W0<0>v" "W0_0v"
"SM1_1_bit2v" "SM1_1_bit2v"
"Gov" "Gov"
"SM1_0_bit3v" "SM1_0_bit3v"
"SM0_0_bit3v" "SM0_0_bit3v"
"W1<3>v" "W1_3v"
"SM0_1_bit2v" "SM0_1_bit2v"
"B0<3>v" "B0_3v"
"B0<2>v" "B0_2v"
"B0<1>v" "B0_1v"
"B0<0>v" "B0_0v"
"W1<2>v" "W1_2v"
"W1<1>v" "W1_1v"
"W1<0>v" "W1_0v"
"SM0_1_bit1v" "SM0_1_bit1v"
"SM0_1_bit0v" "SM0_1_bit0v"
"SM1_1_bit0v" "SM1_1_bit0v"
"~R1<3>v" "\\~R1_3v"
"~R1<2>v" "\\~R1_2v"
"~R1<1>v" "\\~R1_1v"
"~R1<0>v" "\\~R1_0v"
"SM1_1_bit1v" "SM1_1_bit1v"
"B1<3>v" "B1_3v"
"B1<2>v" "B1_2v"
"B1<1>v" "B1_1v"
"B1<0>v" "B1_0v"
"~R0<3>v" "\\~R0_3v"
"~R0<2>v" "\\~R0_2v"
"~R0<1>v" "\\~R0_1v"
"~R0<0>v" "\\~R0_0v"
"S<3>v" "S_3v"
"S<2>v" "S_2v"
"S<1>v" "S_1v"
"S<0>v" "S_0v"
"SM1_0_bit1v" "SM1_0_bit1v"
"SM0_0_bit2v" "SM0_0_bit2v"
"SM1_0_bit0v" "SM1_0_bit0v"
"S<7>v" "S_7v"
"S<6>v" "S_6v"
"S<5>v" "S_5v"
"S<4>v" "S_4v"
"A<31>v" "A_31v"
"A<30>v" "A_30v"
"A<29>v" "A_29v"
"A<28>v" "A_28v"
"A<27>v" "A_27v"
"A<26>v" "A_26v"
"A<25>v" "A_25v"
"A<24>v" "A_24v"
"A<23>v" "A_23v"
"A<22>v" "A_22v"
"A<21>v" "A_21v"
"A<20>v" "A_20v"
"A<19>v" "A_19v"
"A<18>v" "A_18v"
"A<17>v" "A_17v"
"A<16>v" "A_16v"
"A<15>v" "A_15v"
"A<14>v" "A_14v"
"A<13>v" "A_13v"
"A<12>v" "A_12v"
"A<11>v" "A_11v"
"A<10>v" "A_10v"
"A<9>v" "A_9v"
"A<8>v" "A_8v"
"A<7>v" "A_7v"
"A<6>v" "A_6v"
"A<5>v" "A_5v"
"A<4>v" "A_4v"
"A<3>v" "A_3v"
"A<2>v" "A_2v"
"A<1>v" "A_1v"
"A<0>v" "A_0v"
"SM0_0_bit1v" "SM0_0_bit1v"
"SM0_0_bit0v" "SM0_0_bit0v"
"SM1_1_bit3v" "SM1_1_bit3v"
"SM0_1_bit3v" "SM0_1_bit3v"
"A<63>v" "A_63v"
"A<62>v" "A_62v"
"A<61>v" "A_61v"
"A<60>v" "A_60v"
"A<59>v" "A_59v"
"A<58>v" "A_58v"
"A<57>v" "A_57v"
"A<56>v" "A_56v"
"A<55>v" "A_55v"
"A<54>v" "A_54v"
"A<53>v" "A_53v"
"A<52>v" "A_52v"
"A<51>v" "A_51v"
"A<50>v" "A_50v"
"A<49>v" "A_49v"
"A<48>v" "A_48v"
"A<47>v" "A_47v"
"A<46>v" "A_46v"
"A<45>v" "A_45v"
"A<44>v" "A_44v"
"A<43>v" "A_43v"
"A<42>v" "A_42v"
"A<41>v" "A_41v"
"A<40>v" "A_40v"
"A<39>v" "A_39v"
"A<38>v" "A_38v"
"A<37>v" "A_37v"
"A<36>v" "A_36v"
"A<35>v" "A_35v"
"A<34>v" "A_34v"
"A<33>v" "A_33v"
"A<32>v" "A_32v"
