HEADER
"PSFversion" "1.00"
"Bank0WAck<7>v" "Bank0WAck_7v"
"Bank0WAck<6>v" "Bank0WAck_6v"
"Bank0WAck<5>v" "Bank0WAck_5v"
"Bank0WAck<4>v" "Bank0WAck_4v"
"Bank0WAck<3>v" "Bank0WAck_3v"
"Bank0WAck<2>v" "Bank0WAck_2v"
"Bank0WAck<1>v" "Bank0WAck_1v"
"Bank0WAck<0>v" "Bank0WAck_0v"
"net0268<0>v" "net0268_0v"
"net0268<1>v" "net0268_1v"
"net0268<2>v" "net0268_2v"
"net0268<3>v" "net0268_3v"
"net0268<4>v" "net0268_4v"
"net0268<5>v" "net0268_5v"
"net0268<6>v" "net0268_6v"
"net0268<7>v" "net0268_7v"
"net0268<8>v" "net0268_8v"
"net0268<9>v" "net0268_9v"
"net0268<10>v" "net0268_10v"
"net0268<11>v" "net0268_11v"
"net0268<12>v" "net0268_12v"
"net0268<13>v" "net0268_13v"
"net0268<14>v" "net0268_14v"
"net0268<15>v" "net0268_15v"
"net0268<16>v" "net0268_16v"
"net0268<17>v" "net0268_17v"
"net0268<18>v" "net0268_18v"
"net0268<19>v" "net0268_19v"
"net0268<20>v" "net0268_20v"
"net0268<21>v" "net0268_21v"
"net0268<22>v" "net0268_22v"
"net0268<23>v" "net0268_23v"
"net0268<24>v" "net0268_24v"
"net0268<25>v" "net0268_25v"
"net0268<26>v" "net0268_26v"
"net0268<27>v" "net0268_27v"
"net0268<28>v" "net0268_28v"
"net0268<29>v" "net0268_29v"
"net0268<30>v" "net0268_30v"
"net0268<31>v" "net0268_31v"
"net48<0>v" "net48_0v"
"net48<1>v" "net48_1v"
"net069v" "net069v"
"RdBank1<31>v" "RdBank1_31v"
"RdBank1<30>v" "RdBank1_30v"
"RdBank1<29>v" "RdBank1_29v"
"RdBank1<28>v" "RdBank1_28v"
"RdBank1<27>v" "RdBank1_27v"
"RdBank1<26>v" "RdBank1_26v"
"RdBank1<25>v" "RdBank1_25v"
"RdBank1<24>v" "RdBank1_24v"
"RdBank1<23>v" "RdBank1_23v"
"RdBank1<22>v" "RdBank1_22v"
"RdBank1<21>v" "RdBank1_21v"
"RdBank1<20>v" "RdBank1_20v"
"RdBank1<19>v" "RdBank1_19v"
"RdBank1<18>v" "RdBank1_18v"
"RdBank1<17>v" "RdBank1_17v"
"RdBank1<16>v" "RdBank1_16v"
"RdBank1<15>v" "RdBank1_15v"
"RdBank1<14>v" "RdBank1_14v"
"RdBank1<13>v" "RdBank1_13v"
"RdBank1<12>v" "RdBank1_12v"
"RdBank1<11>v" "RdBank1_11v"
"RdBank1<10>v" "RdBank1_10v"
"RdBank1<9>v" "RdBank1_9v"
"RdBank1<8>v" "RdBank1_8v"
"RdBank1<7>v" "RdBank1_7v"
"RdBank1<6>v" "RdBank1_6v"
"RdBank1<5>v" "RdBank1_5v"
"RdBank1<4>v" "RdBank1_4v"
"RdBank1<3>v" "RdBank1_3v"
"RdBank1<2>v" "RdBank1_2v"
"RdBank1<1>v" "RdBank1_1v"
"RdBank1<0>v" "RdBank1_0v"
"net0217<0>v" "net0217_0v"
"net0217<1>v" "net0217_1v"
"net0217<2>v" "net0217_2v"
"net0217<3>v" "net0217_3v"
"net0219<0>v" "net0219_0v"
"net0219<1>v" "net0219_1v"
"net0219<2>v" "net0219_2v"
"net0219<3>v" "net0219_3v"
"net0440<0>v" "net0440_0v"
"net0440<1>v" "net0440_1v"
"net0440<2>v" "net0440_2v"
"net0440<3>v" "net0440_3v"
"net0440<4>v" "net0440_4v"
"net0440<5>v" "net0440_5v"
"net0440<6>v" "net0440_6v"
"net0440<7>v" "net0440_7v"
"net0292<0>v" "net0292_0v"
"net0292<1>v" "net0292_1v"
"net0292<2>v" "net0292_2v"
"net0292<3>v" "net0292_3v"
"net0292<4>v" "net0292_4v"
"net064v" "net064v"
"net0102v" "net0102v"
"net0271<0>v" "net0271_0v"
"net0271<1>v" "net0271_1v"
"net0271<2>v" "net0271_2v"
"net0271<3>v" "net0271_3v"
"net0271<4>v" "net0271_4v"
"R_Address<11>v" "R_Address_11v"
"R_Address<10>v" "R_Address_10v"
"R_Address<9>v" "R_Address_9v"
"R_Address<8>v" "R_Address_8v"
"R_Address<7>v" "R_Address_7v"
"R_Address<6>v" "R_Address_6v"
"R_Address<5>v" "R_Address_5v"
"R_Address<4>v" "R_Address_4v"
"R_Address<3>v" "R_Address_3v"
"R_Address<2>v" "R_Address_2v"
"R_Address<1>v" "R_Address_1v"
"R_Address<0>v" "R_Address_0v"
"net0103v" "net0103v"
"WdBank0<31>v" "WdBank0_31v"
"WdBank0<30>v" "WdBank0_30v"
"WdBank0<29>v" "WdBank0_29v"
"WdBank0<28>v" "WdBank0_28v"
"WdBank0<27>v" "WdBank0_27v"
"WdBank0<26>v" "WdBank0_26v"
"WdBank0<25>v" "WdBank0_25v"
"WdBank0<24>v" "WdBank0_24v"
"WdBank0<23>v" "WdBank0_23v"
"WdBank0<22>v" "WdBank0_22v"
"WdBank0<21>v" "WdBank0_21v"
"WdBank0<20>v" "WdBank0_20v"
"WdBank0<19>v" "WdBank0_19v"
"WdBank0<18>v" "WdBank0_18v"
"WdBank0<17>v" "WdBank0_17v"
"WdBank0<16>v" "WdBank0_16v"
"WdBank0<15>v" "WdBank0_15v"
"WdBank0<14>v" "WdBank0_14v"
"WdBank0<13>v" "WdBank0_13v"
"WdBank0<12>v" "WdBank0_12v"
"WdBank0<11>v" "WdBank0_11v"
"WdBank0<10>v" "WdBank0_10v"
"WdBank0<9>v" "WdBank0_9v"
"WdBank0<8>v" "WdBank0_8v"
"WdBank0<7>v" "WdBank0_7v"
"WdBank0<6>v" "WdBank0_6v"
"WdBank0<5>v" "WdBank0_5v"
"WdBank0<4>v" "WdBank0_4v"
"WdBank0<3>v" "WdBank0_3v"
"WdBank0<2>v" "WdBank0_2v"
"WdBank0<1>v" "WdBank0_1v"
"WdBank0<0>v" "WdBank0_0v"
"net0322<0>v" "net0322_0v"
"net0322<1>v" "net0322_1v"
"net0322<2>v" "net0322_2v"
"net0322<3>v" "net0322_3v"
"net49<0>v" "net49_0v"
"net49<1>v" "net49_1v"
"net49<2>v" "net49_2v"
"net49<3>v" "net49_3v"
"net49<4>v" "net49_4v"
"net16v" "net16v"
"net0391<0>v" "net0391_0v"
"net0391<1>v" "net0391_1v"
"net0391<2>v" "net0391_2v"
"net0391<3>v" "net0391_3v"
"net0391<4>v" "net0391_4v"
"net0391<5>v" "net0391_5v"
"net0391<6>v" "net0391_6v"
"net0391<7>v" "net0391_7v"
"net0248<0>v" "net0248_0v"
"net0248<1>v" "net0248_1v"
"net0418<0>v" "net0418_0v"
"net0418<1>v" "net0418_1v"
"net0418<2>v" "net0418_2v"
"net0418<3>v" "net0418_3v"
"net0418<4>v" "net0418_4v"
"net0418<5>v" "net0418_5v"
"net0418<6>v" "net0418_6v"
"net0418<7>v" "net0418_7v"
"net0418<8>v" "net0418_8v"
"net0418<9>v" "net0418_9v"
"net0418<10>v" "net0418_10v"
"net0418<11>v" "net0418_11v"
"net0418<12>v" "net0418_12v"
"net0418<13>v" "net0418_13v"
"net0418<14>v" "net0418_14v"
"net0418<15>v" "net0418_15v"
"net0418<16>v" "net0418_16v"
"net0418<17>v" "net0418_17v"
"net0418<18>v" "net0418_18v"
"net0418<19>v" "net0418_19v"
"net0418<20>v" "net0418_20v"
"net0418<21>v" "net0418_21v"
"net0418<22>v" "net0418_22v"
"net0418<23>v" "net0418_23v"
"net0418<24>v" "net0418_24v"
"net0418<25>v" "net0418_25v"
"net0418<26>v" "net0418_26v"
"net0418<27>v" "net0418_27v"
"net0418<28>v" "net0418_28v"
"net0418<29>v" "net0418_29v"
"net0418<30>v" "net0418_30v"
"net0418<31>v" "net0418_31v"
"Rdata<7>v" "Rdata_7v"
"Rdata<6>v" "Rdata_6v"
"Rdata<5>v" "Rdata_5v"
"Rdata<4>v" "Rdata_4v"
"net0396<0>v" "net0396_0v"
"net0396<1>v" "net0396_1v"
"net0396<2>v" "net0396_2v"
"net0396<3>v" "net0396_3v"
"net0396<4>v" "net0396_4v"
"net0396<5>v" "net0396_5v"
"net0396<6>v" "net0396_6v"
"net0396<7>v" "net0396_7v"
"net0324<0>v" "net0324_0v"
"net0324<1>v" "net0324_1v"
"net0324<2>v" "net0324_2v"
"net0324<3>v" "net0324_3v"
"RdBank3<31>v" "RdBank3_31v"
"RdBank3<30>v" "RdBank3_30v"
"RdBank3<29>v" "RdBank3_29v"
"RdBank3<28>v" "RdBank3_28v"
"RdBank3<27>v" "RdBank3_27v"
"RdBank3<26>v" "RdBank3_26v"
"RdBank3<25>v" "RdBank3_25v"
"RdBank3<24>v" "RdBank3_24v"
"RdBank3<23>v" "RdBank3_23v"
"RdBank3<22>v" "RdBank3_22v"
"RdBank3<21>v" "RdBank3_21v"
"RdBank3<20>v" "RdBank3_20v"
"RdBank3<19>v" "RdBank3_19v"
"RdBank3<18>v" "RdBank3_18v"
"RdBank3<17>v" "RdBank3_17v"
"RdBank3<16>v" "RdBank3_16v"
"RdBank3<15>v" "RdBank3_15v"
"RdBank3<14>v" "RdBank3_14v"
"RdBank3<13>v" "RdBank3_13v"
"RdBank3<12>v" "RdBank3_12v"
"RdBank3<11>v" "RdBank3_11v"
"RdBank3<10>v" "RdBank3_10v"
"RdBank3<9>v" "RdBank3_9v"
"RdBank3<8>v" "RdBank3_8v"
"RdBank3<7>v" "RdBank3_7v"
"RdBank3<6>v" "RdBank3_6v"
"RdBank3<5>v" "RdBank3_5v"
"RdBank3<4>v" "RdBank3_4v"
"RdBank3<3>v" "RdBank3_3v"
"RdBank3<2>v" "RdBank3_2v"
"RdBank3<1>v" "RdBank3_1v"
"RdBank3<0>v" "RdBank3_0v"
"Rdata<27>v" "Rdata_27v"
"Rdata<26>v" "Rdata_26v"
"Rdata<25>v" "Rdata_25v"
"Rdata<24>v" "Rdata_24v"
"RdBank2Ack<7>v" "RdBank2Ack_7v"
"RdBank2Ack<6>v" "RdBank2Ack_6v"
"RdBank2Ack<5>v" "RdBank2Ack_5v"
"RdBank2Ack<4>v" "RdBank2Ack_4v"
"RdBank2Ack<3>v" "RdBank2Ack_3v"
"RdBank2Ack<2>v" "RdBank2Ack_2v"
"RdBank2Ack<1>v" "RdBank2Ack_1v"
"RdBank2Ack<0>v" "RdBank2Ack_0v"
"WDataAck<15>v" "WDataAck_15v"
"WDataAck<14>v" "WDataAck_14v"
"WDataAck<13>v" "WDataAck_13v"
"WDataAck<12>v" "WDataAck_12v"
"WDataAck<11>v" "WDataAck_11v"
"WDataAck<10>v" "WDataAck_10v"
"WDataAck<9>v" "WDataAck_9v"
"WDataAck<8>v" "WDataAck_8v"
"WDataAck<7>v" "WDataAck_7v"
"WDataAck<6>v" "WDataAck_6v"
"WDataAck<5>v" "WDataAck_5v"
"WDataAck<4>v" "WDataAck_4v"
"WDataAck<3>v" "WDataAck_3v"
"WDataAck<2>v" "WDataAck_2v"
"WDataAck<1>v" "WDataAck_1v"
"WDataAck<0>v" "WDataAck_0v"
"net019v" "net019v"
"net0329<0>v" "net0329_0v"
"net0329<1>v" "net0329_1v"
"net0329<2>v" "net0329_2v"
"net0329<3>v" "net0329_3v"
"net0272<0>v" "net0272_0v"
"net0272<1>v" "net0272_1v"
"net0312<0>v" "net0312_0v"
"net0312<1>v" "net0312_1v"
"net0312<2>v" "net0312_2v"
"net0312<3>v" "net0312_3v"
"net0312<4>v" "net0312_4v"
"net0312<5>v" "net0312_5v"
"net0312<6>v" "net0312_6v"
"net0312<7>v" "net0312_7v"
"Rdata<19>v" "Rdata_19v"
"Rdata<18>v" "Rdata_18v"
"Rdata<17>v" "Rdata_17v"
"Rdata<16>v" "Rdata_16v"
"net0303<0>v" "net0303_0v"
"net0303<1>v" "net0303_1v"
"net0303<2>v" "net0303_2v"
"net0303<3>v" "net0303_3v"
"net0303<4>v" "net0303_4v"
"net0303<5>v" "net0303_5v"
"net0303<6>v" "net0303_6v"
"net0303<7>v" "net0303_7v"
"Wdata2<27>v" "Wdata2_27v"
"Wdata2<26>v" "Wdata2_26v"
"Wdata2<25>v" "Wdata2_25v"
"Wdata2<24>v" "Wdata2_24v"
"net0325<0>v" "net0325_0v"
"net0325<1>v" "net0325_1v"
"net0325<2>v" "net0325_2v"
"net0325<3>v" "net0325_3v"
"net46<0>v" "net46_0v"
"net46<1>v" "net46_1v"
"net0294<0>v" "net0294_0v"
"net0294<1>v" "net0294_1v"
"net0294<2>v" "net0294_2v"
"net0294<3>v" "net0294_3v"
"net0294<4>v" "net0294_4v"
"net0294<5>v" "net0294_5v"
"net0294<6>v" "net0294_6v"
"net0294<7>v" "net0294_7v"
"net0294<8>v" "net0294_8v"
"net0294<9>v" "net0294_9v"
"net0294<10>v" "net0294_10v"
"net0294<11>v" "net0294_11v"
"net0294<12>v" "net0294_12v"
"net0294<13>v" "net0294_13v"
"net0294<14>v" "net0294_14v"
"net0294<15>v" "net0294_15v"
"net0294<16>v" "net0294_16v"
"net0294<17>v" "net0294_17v"
"net0294<18>v" "net0294_18v"
"net0294<19>v" "net0294_19v"
"Rdata<11>v" "Rdata_11v"
"Rdata<10>v" "Rdata_10v"
"Rdata<9>v" "Rdata_9v"
"Rdata<8>v" "Rdata_8v"
"net0326<0>v" "net0326_0v"
"net0326<1>v" "net0326_1v"
"net0326<2>v" "net0326_2v"
"net0326<3>v" "net0326_3v"
"net0349v" "net0349v"
"net33<0>v" "net33_0v"
"net33<1>v" "net33_1v"
"net33<2>v" "net33_2v"
"net33<3>v" "net33_3v"
"net33<4>v" "net33_4v"
"net33<5>v" "net33_5v"
"net33<6>v" "net33_6v"
"net33<7>v" "net33_7v"
"net33<8>v" "net33_8v"
"net33<9>v" "net33_9v"
"net33<10>v" "net33_10v"
"net33<11>v" "net33_11v"
"net33<12>v" "net33_12v"
"net33<13>v" "net33_13v"
"net33<14>v" "net33_14v"
"net33<15>v" "net33_15v"
"net33<16>v" "net33_16v"
"net33<17>v" "net33_17v"
"net33<18>v" "net33_18v"
"net33<19>v" "net33_19v"
"Wdata<7>v" "Wdata_7v"
"Wdata<6>v" "Wdata_6v"
"Wdata<5>v" "Wdata_5v"
"Wdata<4>v" "Wdata_4v"
"net0306<0>v" "net0306_0v"
"net0306<1>v" "net0306_1v"
"net0306<2>v" "net0306_2v"
"net0306<3>v" "net0306_3v"
"net0334<0>v" "net0334_0v"
"net0334<1>v" "net0334_1v"
"net0334<2>v" "net0334_2v"
"net0334<3>v" "net0334_3v"
"net0283<0>v" "net0283_0v"
"net0283<1>v" "net0283_1v"
"RdBank3Ack<7>v" "RdBank3Ack_7v"
"RdBank3Ack<6>v" "RdBank3Ack_6v"
"RdBank3Ack<5>v" "RdBank3Ack_5v"
"RdBank3Ack<4>v" "RdBank3Ack_4v"
"RdBank3Ack<3>v" "RdBank3Ack_3v"
"RdBank3Ack<2>v" "RdBank3Ack_2v"
"RdBank3Ack<1>v" "RdBank3Ack_1v"
"RdBank3Ack<0>v" "RdBank3Ack_0v"
"Rdata<31>v" "Rdata_31v"
"Rdata<30>v" "Rdata_30v"
"Rdata<29>v" "Rdata_29v"
"Rdata<28>v" "Rdata_28v"
"net47<0>v" "net47_0v"
"net47<1>v" "net47_1v"
"net0323<0>v" "net0323_0v"
"net0323<1>v" "net0323_1v"
"net0323<2>v" "net0323_2v"
"net0323<3>v" "net0323_3v"
"net0315<0>v" "net0315_0v"
"net0315<1>v" "net0315_1v"
"net0315<2>v" "net0315_2v"
"net0315<3>v" "net0315_3v"
"RdBank1Ack<7>v" "RdBank1Ack_7v"
"RdBank1Ack<6>v" "RdBank1Ack_6v"
"RdBank1Ack<5>v" "RdBank1Ack_5v"
"RdBank1Ack<4>v" "RdBank1Ack_4v"
"RdBank1Ack<3>v" "RdBank1Ack_3v"
"RdBank1Ack<2>v" "RdBank1Ack_2v"
"RdBank1Ack<1>v" "RdBank1Ack_1v"
"RdBank1Ack<0>v" "RdBank1Ack_0v"
"net0204<0>v" "net0204_0v"
"net0204<1>v" "net0204_1v"
"net0204<2>v" "net0204_2v"
"net0204<3>v" "net0204_3v"
"net0204<4>v" "net0204_4v"
"net0242<0>v" "net0242_0v"
"net0242<1>v" "net0242_1v"
"net0242<2>v" "net0242_2v"
"net0242<3>v" "net0242_3v"
"Rdata2<31>v" "Rdata2_31v"
"Rdata2<30>v" "Rdata2_30v"
"Rdata2<29>v" "Rdata2_29v"
"Rdata2<28>v" "Rdata2_28v"
"net053v" "net053v"
"net0265<0>v" "net0265_0v"
"net0265<1>v" "net0265_1v"
"net0265<2>v" "net0265_2v"
"net0265<3>v" "net0265_3v"
"net0265<4>v" "net0265_4v"
"net0341<0>v" "net0341_0v"
"net0341<1>v" "net0341_1v"
"net0341<2>v" "net0341_2v"
"net0341<3>v" "net0341_3v"
"net0341<4>v" "net0341_4v"
"net0341<5>v" "net0341_5v"
"net0341<6>v" "net0341_6v"
"net0341<7>v" "net0341_7v"
"net0341<8>v" "net0341_8v"
"net0341<9>v" "net0341_9v"
"net0341<10>v" "net0341_10v"
"net0341<11>v" "net0341_11v"
"net0341<12>v" "net0341_12v"
"net0341<13>v" "net0341_13v"
"net0341<14>v" "net0341_14v"
"net0341<15>v" "net0341_15v"
"net0341<16>v" "net0341_16v"
"net0341<17>v" "net0341_17v"
"net0341<18>v" "net0341_18v"
"net0341<19>v" "net0341_19v"
"net0341<20>v" "net0341_20v"
"net0341<21>v" "net0341_21v"
"net0341<22>v" "net0341_22v"
"net0341<23>v" "net0341_23v"
"net0281<0>v" "net0281_0v"
"net0281<1>v" "net0281_1v"
"net0291<0>v" "net0291_0v"
"net0291<1>v" "net0291_1v"
"net0291<2>v" "net0291_2v"
"net0291<3>v" "net0291_3v"
"net0291<4>v" "net0291_4v"
"Wdata<15>v" "Wdata_15v"
"Wdata<14>v" "Wdata_14v"
"Wdata<13>v" "Wdata_13v"
"Wdata<12>v" "Wdata_12v"
"net0257<0>v" "net0257_0v"
"net0257<1>v" "net0257_1v"
"net0257<2>v" "net0257_2v"
"net0257<3>v" "net0257_3v"
"net0257<4>v" "net0257_4v"
"net0257<5>v" "net0257_5v"
"net0257<6>v" "net0257_6v"
"net0257<7>v" "net0257_7v"
"net0257<8>v" "net0257_8v"
"net0257<9>v" "net0257_9v"
"net0257<10>v" "net0257_10v"
"net0257<11>v" "net0257_11v"
"net0257<12>v" "net0257_12v"
"net0257<13>v" "net0257_13v"
"net0257<14>v" "net0257_14v"
"net0257<15>v" "net0257_15v"
"net0257<16>v" "net0257_16v"
"net0257<17>v" "net0257_17v"
"net0257<18>v" "net0257_18v"
"net0257<19>v" "net0257_19v"
"net0330<0>v" "net0330_0v"
"net0330<1>v" "net0330_1v"
"net0330<2>v" "net0330_2v"
"net0330<3>v" "net0330_3v"
"net0330<4>v" "net0330_4v"
"net0330<5>v" "net0330_5v"
"net0330<6>v" "net0330_6v"
"net0330<7>v" "net0330_7v"
"Wdata<11>v" "Wdata_11v"
"Wdata<10>v" "Wdata_10v"
"Wdata<9>v" "Wdata_9v"
"Wdata<8>v" "Wdata_8v"
"net0320<0>v" "net0320_0v"
"net0320<1>v" "net0320_1v"
"net0320<2>v" "net0320_2v"
"net0320<3>v" "net0320_3v"
"net0443<0>v" "net0443_0v"
"net0443<1>v" "net0443_1v"
"net0443<2>v" "net0443_2v"
"net0443<3>v" "net0443_3v"
"net0443<4>v" "net0443_4v"
"net0443<5>v" "net0443_5v"
"net0443<6>v" "net0443_6v"
"net0443<7>v" "net0443_7v"
"net0259<0>v" "net0259_0v"
"net0259<1>v" "net0259_1v"
"net0337<0>v" "net0337_0v"
"net0337<1>v" "net0337_1v"
"net0337<2>v" "net0337_2v"
"net0337<3>v" "net0337_3v"
"net022v" "net022v"
"net0227<0>v" "net0227_0v"
"net0227<1>v" "net0227_1v"
"net0227<2>v" "net0227_2v"
"net0227<3>v" "net0227_3v"
"net40<0>v" "net40_0v"
"net40<1>v" "net40_1v"
"net40<2>v" "net40_2v"
"net40<3>v" "net40_3v"
"net40<4>v" "net40_4v"
"WriteEnv" "WriteEnv"
"net12v" "net12v"
"Rdata<15>v" "Rdata_15v"
"Rdata<14>v" "Rdata_14v"
"Rdata<13>v" "Rdata_13v"
"Rdata<12>v" "Rdata_12v"
"net0438<0>v" "net0438_0v"
"net0438<1>v" "net0438_1v"
"net0438<2>v" "net0438_2v"
"net0438<3>v" "net0438_3v"
"net0438<4>v" "net0438_4v"
"net0438<5>v" "net0438_5v"
"net0438<6>v" "net0438_6v"
"net0438<7>v" "net0438_7v"
"net0438<8>v" "net0438_8v"
"net0438<9>v" "net0438_9v"
"net0438<10>v" "net0438_10v"
"net0438<11>v" "net0438_11v"
"net0438<12>v" "net0438_12v"
"net0438<13>v" "net0438_13v"
"net0438<14>v" "net0438_14v"
"net0438<15>v" "net0438_15v"
"net0438<16>v" "net0438_16v"
"net0438<17>v" "net0438_17v"
"net0438<18>v" "net0438_18v"
"net0438<19>v" "net0438_19v"
"net0438<20>v" "net0438_20v"
"net0438<21>v" "net0438_21v"
"net0438<22>v" "net0438_22v"
"net0438<23>v" "net0438_23v"
"net0438<24>v" "net0438_24v"
"net0438<25>v" "net0438_25v"
"net0438<26>v" "net0438_26v"
"net0438<27>v" "net0438_27v"
"net0438<28>v" "net0438_28v"
"net0438<29>v" "net0438_29v"
"net0438<30>v" "net0438_30v"
"net0438<31>v" "net0438_31v"
"net0332<0>v" "net0332_0v"
"net0332<1>v" "net0332_1v"
"net0332<2>v" "net0332_2v"
"net0332<3>v" "net0332_3v"
"RData<31>v" "RData_31v"
"RData<30>v" "RData_30v"
"RData<29>v" "RData_29v"
"RData<28>v" "RData_28v"
"RData<27>v" "RData_27v"
"RData<26>v" "RData_26v"
"RData<25>v" "RData_25v"
"RData<24>v" "RData_24v"
"RData<23>v" "RData_23v"
"RData<22>v" "RData_22v"
"RData<21>v" "RData_21v"
"RData<20>v" "RData_20v"
"RData<19>v" "RData_19v"
"RData<18>v" "RData_18v"
"RData<17>v" "RData_17v"
"RData<16>v" "RData_16v"
"RData<15>v" "RData_15v"
"RData<14>v" "RData_14v"
"RData<13>v" "RData_13v"
"RData<12>v" "RData_12v"
"RData<11>v" "RData_11v"
"RData<10>v" "RData_10v"
"RData<9>v" "RData_9v"
"RData<8>v" "RData_8v"
"RData<7>v" "RData_7v"
"RData<6>v" "RData_6v"
"RData<5>v" "RData_5v"
"RData<4>v" "RData_4v"
"RData<3>v" "RData_3v"
"RData<2>v" "RData_2v"
"RData<1>v" "RData_1v"
"RData<0>v" "RData_0v"
"Write<0>v" "Write_0v"
"net0213<0>v" "net0213_0v"
"net0213<1>v" "net0213_1v"
"net0213<2>v" "net0213_2v"
"net0213<3>v" "net0213_3v"
"net37<0>v" "net37_0v"
"net37<1>v" "net37_1v"
"net37<2>v" "net37_2v"
"net37<3>v" "net37_3v"
"net37<4>v" "net37_4v"
"Rdata2<19>v" "Rdata2_19v"
"Rdata2<18>v" "Rdata2_18v"
"Rdata2<17>v" "Rdata2_17v"
"Rdata2<16>v" "Rdata2_16v"
"net0226<0>v" "net0226_0v"
"net0226<1>v" "net0226_1v"
"net0226<2>v" "net0226_2v"
"net0226<3>v" "net0226_3v"
"net0338<0>v" "net0338_0v"
"net0338<1>v" "net0338_1v"
"net0338<2>v" "net0338_2v"
"net0338<3>v" "net0338_3v"
"Rdata<3>v" "Rdata_3v"
"Rdata<2>v" "Rdata_2v"
"Rdata<1>v" "Rdata_1v"
"Rdata<0>v" "Rdata_0v"
"net0261<0>v" "net0261_0v"
"net0261<1>v" "net0261_1v"
"net0261<2>v" "net0261_2v"
"net0261<3>v" "net0261_3v"
"net0261<4>v" "net0261_4v"
"net0261<5>v" "net0261_5v"
"net0261<6>v" "net0261_6v"
"net0261<7>v" "net0261_7v"
"net0313<0>v" "net0313_0v"
"net0313<1>v" "net0313_1v"
"net0313<2>v" "net0313_2v"
"net0313<3>v" "net0313_3v"
"net0342<0>v" "net0342_0v"
"net0342<1>v" "net0342_1v"
"net0342<2>v" "net0342_2v"
"net0342<3>v" "net0342_3v"
"net0342<4>v" "net0342_4v"
"net0342<5>v" "net0342_5v"
"net8v" "net8v"
"net0225<0>v" "net0225_0v"
"net0225<1>v" "net0225_1v"
"net0225<2>v" "net0225_2v"
"net0225<3>v" "net0225_3v"
"net0225<4>v" "net0225_4v"
"net0225<5>v" "net0225_5v"
"net0225<6>v" "net0225_6v"
"net0225<7>v" "net0225_7v"
"net0311<0>v" "net0311_0v"
"net0311<1>v" "net0311_1v"
"net0311<2>v" "net0311_2v"
"net0311<3>v" "net0311_3v"
"net0212<0>v" "net0212_0v"
"net0212<1>v" "net0212_1v"
"net0212<2>v" "net0212_2v"
"net0212<3>v" "net0212_3v"
"net0235<0>v" "net0235_0v"
"net0235<1>v" "net0235_1v"
"net0235<2>v" "net0235_2v"
"net0235<3>v" "net0235_3v"
"net54<0>v" "net54_0v"
"net54<1>v" "net54_1v"
"net54<2>v" "net54_2v"
"net54<3>v" "net54_3v"
"net54<4>v" "net54_4v"
"net54<5>v" "net54_5v"
"net54<6>v" "net54_6v"
"net54<7>v" "net54_7v"
"net54<8>v" "net54_8v"
"net54<9>v" "net54_9v"
"net54<10>v" "net54_10v"
"net54<11>v" "net54_11v"
"net54<12>v" "net54_12v"
"net54<13>v" "net54_13v"
"net54<14>v" "net54_14v"
"net54<15>v" "net54_15v"
"net54<16>v" "net54_16v"
"net54<17>v" "net54_17v"
"net54<18>v" "net54_18v"
"net54<19>v" "net54_19v"
"net42<0>v" "net42_0v"
"net42<1>v" "net42_1v"
"net42<2>v" "net42_2v"
"net42<3>v" "net42_3v"
"net42<4>v" "net42_4v"
"net42<5>v" "net42_5v"
"net42<6>v" "net42_6v"
"net42<7>v" "net42_7v"
"net42<8>v" "net42_8v"
"net42<9>v" "net42_9v"
"net42<10>v" "net42_10v"
"net42<11>v" "net42_11v"
"net42<12>v" "net42_12v"
"net42<13>v" "net42_13v"
"net42<14>v" "net42_14v"
"net42<15>v" "net42_15v"
"net42<16>v" "net42_16v"
"net42<17>v" "net42_17v"
"net42<18>v" "net42_18v"
"net42<19>v" "net42_19v"
"net0234<0>v" "net0234_0v"
"net0234<1>v" "net0234_1v"
"net0234<2>v" "net0234_2v"
"net0234<3>v" "net0234_3v"
"net0234<4>v" "net0234_4v"
"net0234<5>v" "net0234_5v"
"net0234<6>v" "net0234_6v"
"net0234<7>v" "net0234_7v"
"W_Addr<23>v" "W_Addr_23v"
"W_Addr<22>v" "W_Addr_22v"
"W_Addr<21>v" "W_Addr_21v"
"W_Addr<20>v" "W_Addr_20v"
"W_Addr<19>v" "W_Addr_19v"
"W_Addr<18>v" "W_Addr_18v"
"W_Addr<17>v" "W_Addr_17v"
"W_Addr<16>v" "W_Addr_16v"
"W_Addr<15>v" "W_Addr_15v"
"W_Addr<14>v" "W_Addr_14v"
"W_Addr<13>v" "W_Addr_13v"
"W_Addr<12>v" "W_Addr_12v"
"W_Addr<11>v" "W_Addr_11v"
"W_Addr<10>v" "W_Addr_10v"
"W_Addr<9>v" "W_Addr_9v"
"W_Addr<8>v" "W_Addr_8v"
"W_Addr<7>v" "W_Addr_7v"
"W_Addr<6>v" "W_Addr_6v"
"W_Addr<5>v" "W_Addr_5v"
"W_Addr<4>v" "W_Addr_4v"
"W_Addr<3>v" "W_Addr_3v"
"W_Addr<2>v" "W_Addr_2v"
"W_Addr<1>v" "W_Addr_1v"
"W_Addr<0>v" "W_Addr_0v"
"net026v" "net026v"
"net0343<0>v" "net0343_0v"
"net0343<1>v" "net0343_1v"
"net0343<2>v" "net0343_2v"
"net0343<3>v" "net0343_3v"
"net0343<4>v" "net0343_4v"
"net0343<5>v" "net0343_5v"
"net0346<0>v" "net0346_0v"
"net0346<1>v" "net0346_1v"
"net0346<2>v" "net0346_2v"
"net0346<3>v" "net0346_3v"
"net0346<4>v" "net0346_4v"
"net0346<5>v" "net0346_5v"
"net0346<6>v" "net0346_6v"
"net0346<7>v" "net0346_7v"
"net0346<8>v" "net0346_8v"
"net0346<9>v" "net0346_9v"
"net0346<10>v" "net0346_10v"
"net0346<11>v" "net0346_11v"
"net0346<12>v" "net0346_12v"
"net0346<13>v" "net0346_13v"
"net0346<14>v" "net0346_14v"
"net0346<15>v" "net0346_15v"
"net0346<16>v" "net0346_16v"
"net0346<17>v" "net0346_17v"
"net0346<18>v" "net0346_18v"
"net0346<19>v" "net0346_19v"
"net0346<20>v" "net0346_20v"
"net0346<21>v" "net0346_21v"
"net0346<22>v" "net0346_22v"
"net0346<23>v" "net0346_23v"
"net021v" "net021v"
"Wdata<19>v" "Wdata_19v"
"Wdata<18>v" "Wdata_18v"
"Wdata<17>v" "Wdata_17v"
"Wdata<16>v" "Wdata_16v"
"RdBank0Ack<7>v" "RdBank0Ack_7v"
"RdBank0Ack<6>v" "RdBank0Ack_6v"
"RdBank0Ack<5>v" "RdBank0Ack_5v"
"RdBank0Ack<4>v" "RdBank0Ack_4v"
"RdBank0Ack<3>v" "RdBank0Ack_3v"
"RdBank0Ack<2>v" "RdBank0Ack_2v"
"RdBank0Ack<1>v" "RdBank0Ack_1v"
"RdBank0Ack<0>v" "RdBank0Ack_0v"
"net0327<0>v" "net0327_0v"
"net0327<1>v" "net0327_1v"
"net0327<2>v" "net0327_2v"
"net0327<3>v" "net0327_3v"
"net0336<0>v" "net0336_0v"
"net0336<1>v" "net0336_1v"
"net0336<2>v" "net0336_2v"
"net0336<3>v" "net0336_3v"
"net56<0>v" "net56_0v"
"net56<1>v" "net56_1v"
"net56<2>v" "net56_2v"
"net56<3>v" "net56_3v"
"net56<4>v" "net56_4v"
"net56<5>v" "net56_5v"
"net56<6>v" "net56_6v"
"net56<7>v" "net56_7v"
"net56<8>v" "net56_8v"
"net56<9>v" "net56_9v"
"net56<10>v" "net56_10v"
"net56<11>v" "net56_11v"
"net56<12>v" "net56_12v"
"net56<13>v" "net56_13v"
"net56<14>v" "net56_14v"
"net56<15>v" "net56_15v"
"net56<16>v" "net56_16v"
"net56<17>v" "net56_17v"
"net56<18>v" "net56_18v"
"net56<19>v" "net56_19v"
"net0316<0>v" "net0316_0v"
"net0316<1>v" "net0316_1v"
"net0316<2>v" "net0316_2v"
"net0316<3>v" "net0316_3v"
"net0269<0>v" "net0269_0v"
"net0269<1>v" "net0269_1v"
"net0269<2>v" "net0269_2v"
"net0269<3>v" "net0269_3v"
"net0269<4>v" "net0269_4v"
"net0269<5>v" "net0269_5v"
"net0269<6>v" "net0269_6v"
"net0269<7>v" "net0269_7v"
"net0269<8>v" "net0269_8v"
"net0269<9>v" "net0269_9v"
"net0269<10>v" "net0269_10v"
"net0269<11>v" "net0269_11v"
"net0269<12>v" "net0269_12v"
"net0269<13>v" "net0269_13v"
"net0269<14>v" "net0269_14v"
"net0269<15>v" "net0269_15v"
"net0269<16>v" "net0269_16v"
"net0269<17>v" "net0269_17v"
"net0269<18>v" "net0269_18v"
"net0269<19>v" "net0269_19v"
"net0237<0>v" "net0237_0v"
"net0237<1>v" "net0237_1v"
"net0237<2>v" "net0237_2v"
"net0237<3>v" "net0237_3v"
"net51<0>v" "net51_0v"
"net51<1>v" "net51_1v"
"net51<2>v" "net51_2v"
"net51<3>v" "net51_3v"
"net51<4>v" "net51_4v"
"RRW_Ack1v" "RRW_Ack1v"
"net0220<0>v" "net0220_0v"
"net0220<1>v" "net0220_1v"
"net0220<2>v" "net0220_2v"
"net0220<3>v" "net0220_3v"
"net0344<0>v" "net0344_0v"
"net0344<1>v" "net0344_1v"
"net0344<2>v" "net0344_2v"
"net0344<3>v" "net0344_3v"
"net0344<4>v" "net0344_4v"
"net0344<5>v" "net0344_5v"
"net4v" "net4v"
"net41<0>v" "net41_0v"
"net41<1>v" "net41_1v"
"net17v" "net17v"
"net0215<0>v" "net0215_0v"
"net0215<1>v" "net0215_1v"
"net0215<2>v" "net0215_2v"
"net0215<3>v" "net0215_3v"
"net0345<0>v" "net0345_0v"
"net0345<1>v" "net0345_1v"
"net0345<2>v" "net0345_2v"
"net0345<3>v" "net0345_3v"
"net0345<4>v" "net0345_4v"
"net0345<5>v" "net0345_5v"
"net012v" "net012v"
"net0293<0>v" "net0293_0v"
"net0293<1>v" "net0293_1v"
"net0293<2>v" "net0293_2v"
"net0293<3>v" "net0293_3v"
"net0293<4>v" "net0293_4v"
"net0293<5>v" "net0293_5v"
"net0293<6>v" "net0293_6v"
"net0293<7>v" "net0293_7v"
"net0293<8>v" "net0293_8v"
"net0293<9>v" "net0293_9v"
"net0293<10>v" "net0293_10v"
"net0293<11>v" "net0293_11v"
"net0293<12>v" "net0293_12v"
"net0293<13>v" "net0293_13v"
"net0293<14>v" "net0293_14v"
"net0293<15>v" "net0293_15v"
"net0293<16>v" "net0293_16v"
"net0293<17>v" "net0293_17v"
"net0293<18>v" "net0293_18v"
"net0293<19>v" "net0293_19v"
"net36<0>v" "net36_0v"
"net36<1>v" "net36_1v"
"net36<2>v" "net36_2v"
"net36<3>v" "net36_3v"
"net36<4>v" "net36_4v"
"net36<5>v" "net36_5v"
"net36<6>v" "net36_6v"
"net36<7>v" "net36_7v"
"net36<8>v" "net36_8v"
"net36<9>v" "net36_9v"
"net36<10>v" "net36_10v"
"net36<11>v" "net36_11v"
"net36<12>v" "net36_12v"
"net36<13>v" "net36_13v"
"net36<14>v" "net36_14v"
"net36<15>v" "net36_15v"
"net36<16>v" "net36_16v"
"net36<17>v" "net36_17v"
"net36<18>v" "net36_18v"
"net36<19>v" "net36_19v"
"net0214<0>v" "net0214_0v"
"net0214<1>v" "net0214_1v"
"net0214<2>v" "net0214_2v"
"net0214<3>v" "net0214_3v"
"WA_Ack1<5>v" "WA_Ack1_5v"
"WA_Ack1<4>v" "WA_Ack1_4v"
"WA_Ack1<3>v" "WA_Ack1_3v"
"WA_Ack1<2>v" "WA_Ack1_2v"
"WA_Ack1<1>v" "WA_Ack1_1v"
"WA_Ack1<0>v" "WA_Ack1_0v"
"WRW_Ack2v" "WRW_Ack2v"
"net081v" "net081v"
"net0205v" "net0205v"
"net0260<0>v" "net0260_0v"
"net0260<1>v" "net0260_1v"
"net0260<2>v" "net0260_2v"
"net0260<3>v" "net0260_3v"
"net0260<4>v" "net0260_4v"
"net20v" "net20v"
"net44<0>v" "net44_0v"
"net44<1>v" "net44_1v"
"net0200<0>v" "net0200_0v"
"net0200<1>v" "net0200_1v"
"net0200<2>v" "net0200_2v"
"net0200<3>v" "net0200_3v"
"net0200<4>v" "net0200_4v"
"net0200<5>v" "net0200_5v"
"net0200<6>v" "net0200_6v"
"net0200<7>v" "net0200_7v"
"net0200<8>v" "net0200_8v"
"net0200<9>v" "net0200_9v"
"net0200<10>v" "net0200_10v"
"net0200<11>v" "net0200_11v"
"net0200<12>v" "net0200_12v"
"net0200<13>v" "net0200_13v"
"net0200<14>v" "net0200_14v"
"net0200<15>v" "net0200_15v"
"net0200<16>v" "net0200_16v"
"net0200<17>v" "net0200_17v"
"net0200<18>v" "net0200_18v"
"net0200<19>v" "net0200_19v"
"Wdata2<23>v" "Wdata2_23v"
"Wdata2<22>v" "Wdata2_22v"
"Wdata2<21>v" "Wdata2_21v"
"Wdata2<20>v" "Wdata2_20v"
"Bank2WAck<7>v" "Bank2WAck_7v"
"Bank2WAck<6>v" "Bank2WAck_6v"
"Bank2WAck<5>v" "Bank2WAck_5v"
"Bank2WAck<4>v" "Bank2WAck_4v"
"Bank2WAck<3>v" "Bank2WAck_3v"
"Bank2WAck<2>v" "Bank2WAck_2v"
"Bank2WAck<1>v" "Bank2WAck_1v"
"Bank2WAck<0>v" "Bank2WAck_0v"
"net018v" "net018v"
"net0432<0>v" "net0432_0v"
"net0432<1>v" "net0432_1v"
"net0432<2>v" "net0432_2v"
"net0432<3>v" "net0432_3v"
"net0432<4>v" "net0432_4v"
"net0432<5>v" "net0432_5v"
"net0432<6>v" "net0432_6v"
"net0432<7>v" "net0432_7v"
"net0430<0>v" "net0430_0v"
"net0430<1>v" "net0430_1v"
"net0430<2>v" "net0430_2v"
"net0430<3>v" "net0430_3v"
"net0430<4>v" "net0430_4v"
"net0430<5>v" "net0430_5v"
"net0430<6>v" "net0430_6v"
"net0430<7>v" "net0430_7v"
"net0430<8>v" "net0430_8v"
"net0430<9>v" "net0430_9v"
"net0430<10>v" "net0430_10v"
"net0430<11>v" "net0430_11v"
"net0430<12>v" "net0430_12v"
"net0430<13>v" "net0430_13v"
"net0430<14>v" "net0430_14v"
"net0430<15>v" "net0430_15v"
"net0430<16>v" "net0430_16v"
"net0430<17>v" "net0430_17v"
"net0430<18>v" "net0430_18v"
"net0430<19>v" "net0430_19v"
"net0430<20>v" "net0430_20v"
"net0430<21>v" "net0430_21v"
"net0430<22>v" "net0430_22v"
"net0430<23>v" "net0430_23v"
"net0430<24>v" "net0430_24v"
"net0430<25>v" "net0430_25v"
"net0430<26>v" "net0430_26v"
"net0430<27>v" "net0430_27v"
"net0430<28>v" "net0430_28v"
"net0430<29>v" "net0430_29v"
"net0430<30>v" "net0430_30v"
"net0430<31>v" "net0430_31v"
"net39<0>v" "net39_0v"
"net39<1>v" "net39_1v"
"net39<2>v" "net39_2v"
"net39<3>v" "net39_3v"
"net39<4>v" "net39_4v"
"net39<5>v" "net39_5v"
"net39<6>v" "net39_6v"
"net39<7>v" "net39_7v"
"net39<8>v" "net39_8v"
"net39<9>v" "net39_9v"
"net39<10>v" "net39_10v"
"net39<11>v" "net39_11v"
"net39<12>v" "net39_12v"
"net39<13>v" "net39_13v"
"net39<14>v" "net39_14v"
"net39<15>v" "net39_15v"
"net39<16>v" "net39_16v"
"net39<17>v" "net39_17v"
"net39<18>v" "net39_18v"
"net39<19>v" "net39_19v"
"Bank3WAck<7>v" "Bank3WAck_7v"
"Bank3WAck<6>v" "Bank3WAck_6v"
"Bank3WAck<5>v" "Bank3WAck_5v"
"Bank3WAck<4>v" "Bank3WAck_4v"
"Bank3WAck<3>v" "Bank3WAck_3v"
"Bank3WAck<2>v" "Bank3WAck_2v"
"Bank3WAck<1>v" "Bank3WAck_1v"
"Bank3WAck<0>v" "Bank3WAck_0v"
"Rdata2<7>v" "Rdata2_7v"
"Rdata2<6>v" "Rdata2_6v"
"Rdata2<5>v" "Rdata2_5v"
"Rdata2<4>v" "Rdata2_4v"
"Wdata<23>v" "Wdata_23v"
"Wdata<22>v" "Wdata_22v"
"Wdata<21>v" "Wdata_21v"
"Wdata<20>v" "Wdata_20v"
"RdBank0<31>v" "RdBank0_31v"
"RdBank0<30>v" "RdBank0_30v"
"RdBank0<29>v" "RdBank0_29v"
"RdBank0<28>v" "RdBank0_28v"
"RdBank0<27>v" "RdBank0_27v"
"RdBank0<26>v" "RdBank0_26v"
"RdBank0<25>v" "RdBank0_25v"
"RdBank0<24>v" "RdBank0_24v"
"RdBank0<23>v" "RdBank0_23v"
"RdBank0<22>v" "RdBank0_22v"
"RdBank0<21>v" "RdBank0_21v"
"RdBank0<20>v" "RdBank0_20v"
"RdBank0<19>v" "RdBank0_19v"
"RdBank0<18>v" "RdBank0_18v"
"RdBank0<17>v" "RdBank0_17v"
"RdBank0<16>v" "RdBank0_16v"
"RdBank0<15>v" "RdBank0_15v"
"RdBank0<14>v" "RdBank0_14v"
"RdBank0<13>v" "RdBank0_13v"
"RdBank0<12>v" "RdBank0_12v"
"RdBank0<11>v" "RdBank0_11v"
"RdBank0<10>v" "RdBank0_10v"
"RdBank0<9>v" "RdBank0_9v"
"RdBank0<8>v" "RdBank0_8v"
"RdBank0<7>v" "RdBank0_7v"
"RdBank0<6>v" "RdBank0_6v"
"RdBank0<5>v" "RdBank0_5v"
"RdBank0<4>v" "RdBank0_4v"
"RdBank0<3>v" "RdBank0_3v"
"RdBank0<2>v" "RdBank0_2v"
"RdBank0<1>v" "RdBank0_1v"
"RdBank0<0>v" "RdBank0_0v"
"net19v" "net19v"
"net0233<0>v" "net0233_0v"
"net0233<1>v" "net0233_1v"
"net0233<2>v" "net0233_2v"
"net0233<3>v" "net0233_3v"
"net0247<0>v" "net0247_0v"
"net0247<1>v" "net0247_1v"
"net0247<2>v" "net0247_2v"
"net0247<3>v" "net0247_3v"
"net0247<4>v" "net0247_4v"
"net0267<0>v" "net0267_0v"
"net0267<1>v" "net0267_1v"
"net0267<2>v" "net0267_2v"
"net0267<3>v" "net0267_3v"
"net0267<4>v" "net0267_4v"
"net0267<5>v" "net0267_5v"
"net0267<6>v" "net0267_6v"
"net0267<7>v" "net0267_7v"
"net079v" "net079v"
"Wdata<27>v" "Wdata_27v"
"Wdata<26>v" "Wdata_26v"
"Wdata<25>v" "Wdata_25v"
"Wdata<24>v" "Wdata_24v"
"net0284<0>v" "net0284_0v"
"net0284<1>v" "net0284_1v"
"net0309<0>v" "net0309_0v"
"net0309<1>v" "net0309_1v"
"net0309<2>v" "net0309_2v"
"net0309<3>v" "net0309_3v"
"R_Addr<23>v" "R_Addr_23v"
"R_Addr<22>v" "R_Addr_22v"
"R_Addr<21>v" "R_Addr_21v"
"R_Addr<20>v" "R_Addr_20v"
"R_Addr<19>v" "R_Addr_19v"
"R_Addr<18>v" "R_Addr_18v"
"R_Addr<17>v" "R_Addr_17v"
"R_Addr<16>v" "R_Addr_16v"
"R_Addr<15>v" "R_Addr_15v"
"R_Addr<14>v" "R_Addr_14v"
"R_Addr<13>v" "R_Addr_13v"
"R_Addr<12>v" "R_Addr_12v"
"R_Addr<11>v" "R_Addr_11v"
"R_Addr<10>v" "R_Addr_10v"
"R_Addr<9>v" "R_Addr_9v"
"R_Addr<8>v" "R_Addr_8v"
"R_Addr<7>v" "R_Addr_7v"