HEADER
"PSFversion" "1.00"
"net1v" "net1v"
"Av" "Av"
"Dv" "Dv"
"Cv" "Cv"
"Yv" "Yv"
"Bv" "Bv"
