HEADER
"PSFversion" "1.00"
"I15n" "nand4_1x"
"I16n" "inv_1x"
"Av" ":1v"
"Bv" ":2v"
"Cv" ":3v"
"Dv" ":4v"
"Yv" ":5v"
