HEADER
"PSFversion" "1.00"
"M19n M18n M17n M16n M15n M14n M13n M12n M11n M10n" "NCSU_TechLib_FreePDK15_nfet_spectre"
"M9n M8n M7n M6n M5n M4n M3n M2n M1n M0n" "NCSU_TechLib_FreePDK15_pfet_spectre"
"Av" ":1v"
"Bv" ":2v"
"Cv" ":3v"
"Dv" ":4v"
"Yv" ":5v"
