HEADER
"PSFversion" "1.00"
"V1n V0n" "UCD_Analog_Parts_vdc_spectre"
"I4n" "Compare22_DRn"
"I8<21>v" "I8_21v"
"I8<20>v" "I8_20v"
"I8<19>v" "I8_19v"
"I8<18>v" "I8_18v"
"I8<17>v" "I8_17v"
"I8<16>v" "I8_16v"
"I8<15>v" "I8_15v"
"I8<14>v" "I8_14v"
"I8<13>v" "I8_13v"
"I8<12>v" "I8_12v"
"I8<11>v" "I8_11v"
"I8<10>v" "I8_10v"
"I8<9>v" "I8_9v"
"I8<8>v" "I8_8v"
"I8<7>v" "I8_7v"
"I8<6>v" "I8_6v"
"I8<5>v" "I8_5v"
"I8<4>v" "I8_4v"
"I8<3>v" "I8_3v"
"I8<2>v" "I8_2v"
"I8<1>v" "I8_1v"
"I8<0>v" "I8_0v"
"I7<21>v" "I7_21v"
"I7<20>v" "I7_20v"
"I7<19>v" "I7_19v"
"I7<18>v" "I7_18v"
"I7<17>v" "I7_17v"
"I7<16>v" "I7_16v"
"I7<15>v" "I7_15v"
"I7<14>v" "I7_14v"
"I7<13>v" "I7_13v"
"I7<12>v" "I7_12v"
"I7<11>v" "I7_11v"
"I7<10>v" "I7_10v"
"I7<9>v" "I7_9v"
"I7<8>v" "I7_8v"
"I7<7>v" "I7_7v"
"I7<6>v" "I7_6v"
"I7<5>v" "I7_5v"
"I7<4>v" "I7_4v"
"I7<3>v" "I7_3v"
"I7<2>v" "I7_2v"
"I7<1>v" "I7_1v"
"I7<0>v" "I7_0v"
"I5<21>v" "I5_21v"
"I5<20>v" "I5_20v"
"I5<19>v" "I5_19v"
"I5<18>v" "I5_18v"
"I5<17>v" "I5_17v"
"I5<16>v" "I5_16v"
"I5<15>v" "I5_15v"
"I5<14>v" "I5_14v"
"I5<13>v" "I5_13v"
"I5<12>v" "I5_12v"
"I5<11>v" "I5_11v"
"I5<10>v" "I5_10v"
"I5<9>v" "I5_9v"
"I5<8>v" "I5_8v"
"I5<7>v" "I5_7v"
"I5<6>v" "I5_6v"
"I5<5>v" "I5_5v"
"I5<4>v" "I5_4v"
"I5<3>v" "I5_3v"
"I5<2>v" "I5_2v"
"I5<1>v" "I5_1v"
"I5<0>v" "I5_0v"
"I6<21>v" "I6_21v"
"I6<20>v" "I6_20v"
"I6<19>v" "I6_19v"
"I6<18>v" "I6_18v"
"I6<17>v" "I6_17v"
"I6<16>v" "I6_16v"
"I6<15>v" "I6_15v"
"I6<14>v" "I6_14v"
"I6<13>v" "I6_13v"
"I6<12>v" "I6_12v"
"I6<11>v" "I6_11v"
"I6<10>v" "I6_10v"
"I6<9>v" "I6_9v"
"I6<8>v" "I6_8v"
"I6<7>v" "I6_7v"
"I6<6>v" "I6_6v"
"I6<5>v" "I6_5v"
"I6<4>v" "I6_4v"
"I6<3>v" "I6_3v"
"I6<2>v" "I6_2v"
"I6<1>v" "I6_1v"
"I6<0>v" "I6_0v"
"I13n I15n I14n I8<21>n I8<20>n I8<19>n I8<18>n I8<17>n I8<16>n I8<15>n I8<14>n I8<13>n I8<12>n I8<11>n I8<10>n I8<9>n I8<8>n I8<7>n I8<6>n I8<5>n I8<4>n I8<3>n I8<2>n I8<1>n I8<0>n I7<21>n I7<20>n I7<19>n I7<18>n I7<17>n I7<16>n I7<15>n I7<14>n I7<13>n I7<12>n I7<11>n I7<10>n I7<9>n I7<8>n I7<7>n I7<6>n I7<5>n I7<4>n I7<3>n I7<2>n I7<1>n I7<0>n I5<21>n I5<20>n I5<19>n I5<18>n I5<17>n I5<16>n I5<15>n I5<14>n I5<13>n I5<12>n I5<11>n I5<10>n I5<9>n I5<8>n I5<7>n I5<6>n I5<5>n I5<4>n I5<3>n I5<2>n I5<1>n I5<0>n I6<21>n I6<20>n I6<19>n I6<18>n I6<17>n I6<16>n I6<15>n I6<14>n I6<13>n I6<12>n I6<11>n I6<10>n I6<9>n I6<8>n I6<7>n I6<6>n I6<5>n I6<4>n I6<3>n I6<2>n I6<1>n I6<0>n" "inv_1xt"
