HEADER
"PSFversion" "1.00"
"1y1<3>v" "_1y1_3v"
"1y1<2>v" "_1y1_2v"
"1y1<1>v" "_1y1_1v"
"1y1<0>v" "_1y1_0v"
"b0<3>v" "b0_3v"
"b0<2>v" "b0_2v"
"b0<1>v" "b0_1v"
"b0<0>v" "b0_0v"
"5y0<3>v" "_5y0_3v"
"5y0<2>v" "_5y0_2v"
"5y0<1>v" "_5y0_1v"
"5y0<0>v" "_5y0_0v"
"a1<3>v" "a1_3v"
"a1<2>v" "a1_2v"
"a1<1>v" "a1_1v"
"a1<0>v" "a1_0v"
"s3_y0<3>v" "s3_y0_3v"
"s3_y0<2>v" "s3_y0_2v"
"sfy1<1>v" "sfy1_1v"
"sfy0<0>v" "sfy0_0v"
"s3_y0<1>v" "s3_y0_1v"
"s3_y0<0>v" "s3_y0_0v"
"a1<19>v" "a1_19v"
"a1<18>v" "a1_18v"
"a1<17>v" "a1_17v"
"a1<16>v" "a1_16v"
"a0<7>v" "a0_7v"
"a0<6>v" "a0_6v"
"a0<5>v" "a0_5v"
"a0<4>v" "a0_4v"
"a0<23>v" "a0_23v"
"a0<22>v" "a0_22v"
"a0<21>v" "a0_21v"
"a0<20>v" "a0_20v"
"a0<19>v" "a0_19v"
"a0<18>v" "a0_18v"
"a0<17>v" "a0_17v"
"a0<16>v" "a0_16v"
"a0<15>v" "a0_15v"
"a0<14>v" "a0_14v"
"a0<13>v" "a0_13v"
"a0<12>v" "a0_12v"
"a0<11>v" "a0_11v"
"a0<10>v" "a0_10v"
"a0<9>v" "a0_9v"
"a0<8>v" "a0_8v"
"a0<3>v" "a0_3v"
"a0<2>v" "a0_2v"
"a0<1>v" "a0_1v"
"a0<0>v" "a0_0v"
"1y0<3>v" "_1y0_3v"
"1y0<2>v" "_1y0_2v"
"1y0<1>v" "_1y0_1v"
"1y0<0>v" "_1y0_0v"
"s2_n1_y0<3>v" "s2_n1_y0_3v"
"s2_n1_y0<2>v" "s2_n1_y0_2v"
"s2_n1_y0<1>v" "s2_n1_y0_1v"
"s2_n1_y0<0>v" "s2_n1_y0_0v"
"b0<23>v" "b0_23v"
"b0<22>v" "b0_22v"
"b0<21>v" "b0_21v"
"b0<20>v" "b0_20v"
"b0<19>v" "b0_19v"
"b0<18>v" "b0_18v"
"b0<17>v" "b0_17v"
"b0<16>v" "b0_16v"
"b0<15>v" "b0_15v"
"b0<14>v" "b0_14v"
"b0<13>v" "b0_13v"
"b0<12>v" "b0_12v"
"b0<11>v" "b0_11v"
"b0<10>v" "b0_10v"
"b0<9>v" "b0_9v"
"b0<8>v" "b0_8v"
"b0<7>v" "b0_7v"
"b0<6>v" "b0_6v"
"b0<5>v" "b0_5v"
"b0<4>v" "b0_4v"
"sfy1<0>v" "sfy1_0v"
"5y1<3>v" "_5y1_3v"
"5y1<2>v" "_5y1_2v"
"5y1<1>v" "_5y1_1v"
"5y1<0>v" "_5y1_0v"
"net50v" "net50v"
"6y1<3>v" "_6y1_3v"
"6y1<2>v" "_6y1_2v"
"6y1<1>v" "_6y1_1v"
"6y1<0>v" "_6y1_0v"
"a1<11>v" "a1_11v"
"a1<10>v" "a1_10v"
"a1<9>v" "a1_9v"
"a1<8>v" "a1_8v"
"4y1<3>v" "_4y1_3v"
"4y1<2>v" "_4y1_2v"
"4y1<1>v" "_4y1_1v"
"4y1<0>v" "_4y1_0v"
"net46<0>v" "net46_0v"
"net46<1>v" "net46_1v"
"net46<2>v" "net46_2v"
"net46<3>v" "net46_3v"
"s2_n1_y1<3>v" "s2_n1_y1_3v"
"s2_n1_y1<2>v" "s2_n1_y1_2v"
"s2_n1_y1<1>v" "s2_n1_y1_1v"
"s2_n1_y1<0>v" "s2_n1_y1_0v"
"vAckv" "vAckv"
"b1<3>v" "b1_3v"
"b1<2>v" "b1_2v"
"b1<1>v" "b1_1v"
"b1<0>v" "b1_0v"
"a1<7>v" "a1_7v"
"a1<6>v" "a1_6v"
"a1<5>v" "a1_5v"
"a1<4>v" "a1_4v"
"b1<23>v" "b1_23v"
"b1<22>v" "b1_22v"
"b1<21>v" "b1_21v"
"b1<20>v" "b1_20v"
"s2_n2_y0<3>v" "s2_n2_y0_3v"
"s2_n2_y0<2>v" "s2_n2_y0_2v"
"s2_n2_y0<1>v" "s2_n2_y0_1v"
"s2_n2_y0<0>v" "s2_n2_y0_0v"
"b1<15>v" "b1_15v"
"b1<14>v" "b1_14v"
"b1<13>v" "b1_13v"
"b1<12>v" "b1_12v"
"3y1<3>v" "_3y1_3v"
"3y1<2>v" "_3y1_2v"
"3y1<1>v" "_3y1_1v"
"3y1<0>v" "_3y1_0v"
"s2_n3_y1<3>v" "s2_n3_y1_3v"
"s2_n3_y1<2>v" "s2_n3_y1_2v"
"s2_n3_y1<1>v" "s2_n3_y1_1v"
"s2_n3_y1<0>v" "s2_n3_y1_0v"
"b1<7>v" "b1_7v"
"b1<6>v" "b1_6v"
"b1<5>v" "b1_5v"
"b1<4>v" "b1_4v"
"b1<19>v" "b1_19v"
"b1<18>v" "b1_18v"
"b1<17>v" "b1_17v"
"b1<16>v" "b1_16v"
"6y0<3>v" "_6y0_3v"
"6y0<2>v" "_6y0_2v"
"6y0<1>v" "_6y0_1v"
"6y0<0>v" "_6y0_0v"
"4y0<3>v" "_4y0_3v"
"4y0<2>v" "_4y0_2v"
"4y0<1>v" "_4y0_1v"
"4y0<0>v" "_4y0_0v"
"3y0<3>v" "_3y0_3v"
"3y0<2>v" "_3y0_2v"
"3y0<1>v" "_3y0_1v"
"3y0<0>v" "_3y0_0v"
"2y0<3>v" "_2y0_3v"
"2y0<2>v" "_2y0_2v"
"2y0<1>v" "_2y0_1v"
"2y0<0>v" "_2y0_0v"
"2y1<3>v" "_2y1_3v"
"2y1<2>v" "_2y1_2v"
"2y1<1>v" "_2y1_1v"
"2y1<0>v" "_2y1_0v"
"s3_y1<3>v" "s3_y1_3v"
"s3_y1<2>v" "s3_y1_2v"
"sfy0<1>v" "sfy0_1v"
"s2_n3_y0<3>v" "s2_n3_y0_3v"
"s2_n3_y0<2>v" "s2_n3_y0_2v"
"s2_n3_y0<1>v" "s2_n3_y0_1v"
"s2_n3_y0<0>v" "s2_n3_y0_0v"
"b1<11>v" "b1_11v"
"b1<10>v" "b1_10v"
"b1<9>v" "b1_9v"
"b1<8>v" "b1_8v"
"s3_y1<1>v" "s3_y1_1v"
"s3_y1<0>v" "s3_y1_0v"
"a1<23>v" "a1_23v"
"a1<22>v" "a1_22v"
"a1<21>v" "a1_21v"
"a1<20>v" "a1_20v"
"s2_n2_y1<3>v" "s2_n2_y1_3v"
"s2_n2_y1<2>v" "s2_n2_y1_2v"
"s2_n2_y1<1>v" "s2_n2_y1_1v"
"s2_n2_y1<0>v" "s2_n2_y1_0v"
"a1<15>v" "a1_15v"
"a1<14>v" "a1_14v"
"a1<13>v" "a1_13v"
"a1<12>v" "a1_12v"
"Eqv" "Eqv"
"net47<0>v" "net47_0v"
"net47<1>v" "net47_1v"
"net47<2>v" "net47_2v"
"net47<3>v" "net47_3v"
"~Eqv" "\\~Eqv"
