HEADER
"PSFversion" "1.00"
"net028<0>v" "net028_0v"
"net028<1>v" "net028_1v"
"net028<2>v" "net028_2v"
"net028<3>v" "net028_3v"
"net028<4>v" "net028_4v"
"net028<5>v" "net028_5v"
"net028<6>v" "net028_6v"
"net028<7>v" "net028_7v"
"net028<8>v" "net028_8v"
"net028<9>v" "net028_9v"
"net028<10>v" "net028_10v"
"net028<11>v" "net028_11v"
"net028<12>v" "net028_12v"
"net028<13>v" "net028_13v"
"net028<14>v" "net028_14v"
"net028<15>v" "net028_15v"
"net028<16>v" "net028_16v"
"net028<17>v" "net028_17v"
"net028<18>v" "net028_18v"
"net028<19>v" "net028_19v"
"net028<20>v" "net028_20v"
"net028<21>v" "net028_21v"
"net028<22>v" "net028_22v"
"net028<23>v" "net028_23v"
"net027<0>v" "net027_0v"
"net027<1>v" "net027_1v"
"net027<2>v" "net027_2v"
"net027<3>v" "net027_3v"
"net027<4>v" "net027_4v"
"net027<5>v" "net027_5v"
"net027<6>v" "net027_6v"
"net027<7>v" "net027_7v"
"net027<8>v" "net027_8v"
"net027<9>v" "net027_9v"
"net027<10>v" "net027_10v"
"net027<11>v" "net027_11v"
"net027<12>v" "net027_12v"
"net027<13>v" "net027_13v"
"net027<14>v" "net027_14v"
"net027<15>v" "net027_15v"
"net027<16>v" "net027_16v"
"net027<17>v" "net027_17v"
"net027<18>v" "net027_18v"
"net027<19>v" "net027_19v"
"net027<20>v" "net027_20v"
"net027<21>v" "net027_21v"
"net027<22>v" "net027_22v"
"net027<23>v" "net027_23v"
"net15v" "net15v"
"net029<0>v" "net029_0v"
"net029<1>v" "net029_1v"
"net029<2>v" "net029_2v"
"net029<3>v" "net029_3v"
"net029<4>v" "net029_4v"
"net029<5>v" "net029_5v"
"net029<6>v" "net029_6v"
"net029<7>v" "net029_7v"
"net029<8>v" "net029_8v"
"net029<9>v" "net029_9v"
"net029<10>v" "net029_10v"
"net029<11>v" "net029_11v"
"net029<12>v" "net029_12v"
"net029<13>v" "net029_13v"
"net029<14>v" "net029_14v"
"net029<15>v" "net029_15v"
"net029<16>v" "net029_16v"
"net029<17>v" "net029_17v"
"net029<18>v" "net029_18v"
"net029<19>v" "net029_19v"
"net029<20>v" "net029_20v"
"net029<21>v" "net029_21v"
"net029<22>v" "net029_22v"
"net029<23>v" "net029_23v"
"net20v" "net20v"
"net21v" "net21v"
"net22v" "net22v"
"net032<0>v" "net032_0v"
"net032<1>v" "net032_1v"
"net032<2>v" "net032_2v"
"net032<3>v" "net032_3v"
"net032<4>v" "net032_4v"
"net032<5>v" "net032_5v"
"net032<6>v" "net032_6v"
"net032<7>v" "net032_7v"
"net032<8>v" "net032_8v"
"net032<9>v" "net032_9v"
"net032<10>v" "net032_10v"
"net032<11>v" "net032_11v"
"net032<12>v" "net032_12v"
"net032<13>v" "net032_13v"
"net032<14>v" "net032_14v"
"net032<15>v" "net032_15v"
"net032<16>v" "net032_16v"
"net032<17>v" "net032_17v"
"net032<18>v" "net032_18v"
"net032<19>v" "net032_19v"
"net032<20>v" "net032_20v"
"net032<21>v" "net032_21v"
"net032<22>v" "net032_22v"
"net032<23>v" "net032_23v"
"net033<0>v" "net033_0v"
"net033<1>v" "net033_1v"
"net033<2>v" "net033_2v"
"net033<3>v" "net033_3v"
"net033<4>v" "net033_4v"
"net033<5>v" "net033_5v"
"net033<6>v" "net033_6v"
"net033<7>v" "net033_7v"
"net033<8>v" "net033_8v"
"net033<9>v" "net033_9v"
"net033<10>v" "net033_10v"
"net033<11>v" "net033_11v"
"net033<12>v" "net033_12v"
"net033<13>v" "net033_13v"
"net033<14>v" "net033_14v"
"net033<15>v" "net033_15v"
"net033<16>v" "net033_16v"
"net033<17>v" "net033_17v"
"net033<18>v" "net033_18v"
"net033<19>v" "net033_19v"
"net033<20>v" "net033_20v"
"net033<21>v" "net033_21v"
"net033<22>v" "net033_22v"
"net033<23>v" "net033_23v"
"net031<0>v" "net031_0v"
"net031<1>v" "net031_1v"
"net031<2>v" "net031_2v"
"net031<3>v" "net031_3v"
"net031<4>v" "net031_4v"
"net031<5>v" "net031_5v"
"net031<6>v" "net031_6v"
"net031<7>v" "net031_7v"
"net031<8>v" "net031_8v"
"net031<9>v" "net031_9v"
"net031<10>v" "net031_10v"
"net031<11>v" "net031_11v"
"net031<12>v" "net031_12v"
"net031<13>v" "net031_13v"
"net031<14>v" "net031_14v"
"net031<15>v" "net031_15v"
"net031<16>v" "net031_16v"
"net031<17>v" "net031_17v"
"net031<18>v" "net031_18v"
"net031<19>v" "net031_19v"
"net031<20>v" "net031_20v"
"net031<21>v" "net031_21v"
"net031<22>v" "net031_22v"
"net031<23>v" "net031_23v"
"net23v" "net23v"
"net012v" "net012v"
"net030<0>v" "net030_0v"
"net030<1>v" "net030_1v"
"net030<2>v" "net030_2v"
"net030<3>v" "net030_3v"
"net030<4>v" "net030_4v"
"net030<5>v" "net030_5v"
"net030<6>v" "net030_6v"
"net030<7>v" "net030_7v"
"net030<8>v" "net030_8v"
"net030<9>v" "net030_9v"
"net030<10>v" "net030_10v"
"net030<11>v" "net030_11v"
"net030<12>v" "net030_12v"
"net030<13>v" "net030_13v"
"net030<14>v" "net030_14v"
"net030<15>v" "net030_15v"
"net030<16>v" "net030_16v"
"net030<17>v" "net030_17v"
"net030<18>v" "net030_18v"
"net030<19>v" "net030_19v"
"net030<20>v" "net030_20v"
"net030<21>v" "net030_21v"
"net030<22>v" "net030_22v"
"net030<23>v" "net030_23v"
"net026<0>v" "net026_0v"
"net026<1>v" "net026_1v"
"net026<2>v" "net026_2v"
"net026<3>v" "net026_3v"
"net026<4>v" "net026_4v"
"net026<5>v" "net026_5v"
"net026<6>v" "net026_6v"
"net026<7>v" "net026_7v"
"net026<8>v" "net026_8v"
"net026<9>v" "net026_9v"
"net026<10>v" "net026_10v"
"net026<11>v" "net026_11v"
"net026<12>v" "net026_12v"
"net026<13>v" "net026_13v"
"net026<14>v" "net026_14v"
"net026<15>v" "net026_15v"
"net026<16>v" "net026_16v"
"net026<17>v" "net026_17v"
"net026<18>v" "net026_18v"
"net026<19>v" "net026_19v"
"net026<20>v" "net026_20v"
"net026<21>v" "net026_21v"
"net026<22>v" "net026_22v"
"net026<23>v" "net026_23v"
"vdd!v" "vdd!v"
"vcc!v" "vcc!v"
"gnd!v" "0v"
