HEADER
"PSFversion" "1.00"
"net36<0>v" "net36_0v"
"net36<1>v" "net36_1v"
"net36<2>v" "net36_2v"
"net36<3>v" "net36_3v"
"net36<4>v" "net36_4v"
"net36<5>v" "net36_5v"
"net36<6>v" "net36_6v"
"net36<7>v" "net36_7v"
"net36<8>v" "net36_8v"
"net36<9>v" "net36_9v"
"net36<10>v" "net36_10v"
"net36<11>v" "net36_11v"
"net36<12>v" "net36_12v"
"net36<13>v" "net36_13v"
"net36<14>v" "net36_14v"
"net36<15>v" "net36_15v"
"net36<16>v" "net36_16v"
"net36<17>v" "net36_17v"
"net36<18>v" "net36_18v"
"net36<19>v" "net36_19v"
"net36<20>v" "net36_20v"
"net36<21>v" "net36_21v"
"net20v" "net20v"
"net22v" "net22v"
"net23v" "net23v"
"net15v" "net15v"
"net32<0>v" "net32_0v"
"net32<1>v" "net32_1v"
"net32<2>v" "net32_2v"
"net32<3>v" "net32_3v"
"net32<4>v" "net32_4v"
"net32<5>v" "net32_5v"
"net32<6>v" "net32_6v"
"net32<7>v" "net32_7v"
"net32<8>v" "net32_8v"
"net32<9>v" "net32_9v"
"net32<10>v" "net32_10v"
"net32<11>v" "net32_11v"
"net32<12>v" "net32_12v"
"net32<13>v" "net32_13v"
"net32<14>v" "net32_14v"
"net32<15>v" "net32_15v"
"net32<16>v" "net32_16v"
"net32<17>v" "net32_17v"
"net32<18>v" "net32_18v"
"net32<19>v" "net32_19v"
"net32<20>v" "net32_20v"
"net32<21>v" "net32_21v"
"net21v" "net21v"
"net39<0>v" "net39_0v"
"net39<1>v" "net39_1v"
"net39<2>v" "net39_2v"
"net39<3>v" "net39_3v"
"net39<4>v" "net39_4v"
"net39<5>v" "net39_5v"
"net39<6>v" "net39_6v"
"net39<7>v" "net39_7v"
"net39<8>v" "net39_8v"
"net39<9>v" "net39_9v"
"net39<10>v" "net39_10v"
"net39<11>v" "net39_11v"
"net39<12>v" "net39_12v"
"net39<13>v" "net39_13v"
"net39<14>v" "net39_14v"
"net39<15>v" "net39_15v"
"net39<16>v" "net39_16v"
"net39<17>v" "net39_17v"
"net39<18>v" "net39_18v"
"net39<19>v" "net39_19v"
"net39<20>v" "net39_20v"
"net39<21>v" "net39_21v"
"net37<0>v" "net37_0v"
"net37<1>v" "net37_1v"
"net37<2>v" "net37_2v"
"net37<3>v" "net37_3v"
"net37<4>v" "net37_4v"
"net37<5>v" "net37_5v"
"net37<6>v" "net37_6v"
"net37<7>v" "net37_7v"
"net37<8>v" "net37_8v"
"net37<9>v" "net37_9v"
"net37<10>v" "net37_10v"
"net37<11>v" "net37_11v"
"net37<12>v" "net37_12v"
"net37<13>v" "net37_13v"
"net37<14>v" "net37_14v"
"net37<15>v" "net37_15v"
"net37<16>v" "net37_16v"
"net37<17>v" "net37_17v"
"net37<18>v" "net37_18v"
"net37<19>v" "net37_19v"
"net37<20>v" "net37_20v"
"net37<21>v" "net37_21v"
"net33<0>v" "net33_0v"
"net33<1>v" "net33_1v"
"net33<2>v" "net33_2v"
"net33<3>v" "net33_3v"
"net33<4>v" "net33_4v"
"net33<5>v" "net33_5v"
"net33<6>v" "net33_6v"
"net33<7>v" "net33_7v"
"net33<8>v" "net33_8v"
"net33<9>v" "net33_9v"
"net33<10>v" "net33_10v"
"net33<11>v" "net33_11v"
"net33<12>v" "net33_12v"
"net33<13>v" "net33_13v"
"net33<14>v" "net33_14v"
"net33<15>v" "net33_15v"
"net33<16>v" "net33_16v"
"net33<17>v" "net33_17v"
"net33<18>v" "net33_18v"
"net33<19>v" "net33_19v"
"net33<20>v" "net33_20v"
"net33<21>v" "net33_21v"
"net35<0>v" "net35_0v"
"net35<1>v" "net35_1v"
"net35<2>v" "net35_2v"
"net35<3>v" "net35_3v"
"net35<4>v" "net35_4v"
"net35<5>v" "net35_5v"
"net35<6>v" "net35_6v"
"net35<7>v" "net35_7v"
"net35<8>v" "net35_8v"
"net35<9>v" "net35_9v"
"net35<10>v" "net35_10v"
"net35<11>v" "net35_11v"
"net35<12>v" "net35_12v"
"net35<13>v" "net35_13v"
"net35<14>v" "net35_14v"
"net35<15>v" "net35_15v"
"net35<16>v" "net35_16v"
"net35<17>v" "net35_17v"
"net35<18>v" "net35_18v"
"net35<19>v" "net35_19v"
"net35<20>v" "net35_20v"
"net35<21>v" "net35_21v"
"net012v" "net012v"
"net34<0>v" "net34_0v"
"net34<1>v" "net34_1v"
"net34<2>v" "net34_2v"
"net34<3>v" "net34_3v"
"net34<4>v" "net34_4v"
"net34<5>v" "net34_5v"
"net34<6>v" "net34_6v"
"net34<7>v" "net34_7v"
"net34<8>v" "net34_8v"
"net34<9>v" "net34_9v"
"net34<10>v" "net34_10v"
"net34<11>v" "net34_11v"
"net34<12>v" "net34_12v"
"net34<13>v" "net34_13v"
"net34<14>v" "net34_14v"
"net34<15>v" "net34_15v"
"net34<16>v" "net34_16v"
"net34<17>v" "net34_17v"
"net34<18>v" "net34_18v"
"net34<19>v" "net34_19v"
"net34<20>v" "net34_20v"
"net34<21>v" "net34_21v"
"net38<0>v" "net38_0v"
"net38<1>v" "net38_1v"
"net38<2>v" "net38_2v"
"net38<3>v" "net38_3v"
"net38<4>v" "net38_4v"
"net38<5>v" "net38_5v"
"net38<6>v" "net38_6v"
"net38<7>v" "net38_7v"
"net38<8>v" "net38_8v"
"net38<9>v" "net38_9v"
"net38<10>v" "net38_10v"
"net38<11>v" "net38_11v"
"net38<12>v" "net38_12v"
"net38<13>v" "net38_13v"
"net38<14>v" "net38_14v"
"net38<15>v" "net38_15v"
"net38<16>v" "net38_16v"
"net38<17>v" "net38_17v"
"net38<18>v" "net38_18v"
"net38<19>v" "net38_19v"
"net38<20>v" "net38_20v"
"net38<21>v" "net38_21v"
"vdd!v" "vdd!v"
"gnd!v" "0v"
"vcc!v" "vcc!v"
