HEADER
"PSFversion" "1.00"
"I6n I4n I2n I0n" "Compare_DR"
"I7n I5n I3n I1n" "Valid_DR"
"a0<3>v" ":1v"
"a0<2>v" ":2v"
"a0<1>v" ":3v"
"a0<0>v" ":4v"
"a1<3>v" ":5v"
"a1<2>v" ":6v"
"a1<1>v" ":7v"
"a1<0>v" ":8v"
"b0<3>v" ":9v"
"b0<2>v" ":10v"
"b0<1>v" ":11v"
"b0<0>v" ":12v"
"b1<3>v" ":13v"
"b1<2>v" ":14v"
"b1<1>v" ":15v"
"b1<0>v" ":16v"
"y0<3>v" ":17v"
"y0<2>v" ":18v"
"y0<1>v" ":19v"
"y0<0>v" ":20v"
"y1<3>v" ":21v"
"y1<2>v" ":22v"
"y1<1>v" ":23v"
"y1<0>v" ":24v"
