HEADER
"PSFversion" "1.00"
"I0n" "_sub67"
"I1n" "_sub66"
"I2n" "_sub68"
"A<19>v" ":1v"
"A<18>v" ":2v"
"A<17>v" ":3v"
"A<16>v" ":4v"
"A<15>v" ":5v"
"A<14>v" ":6v"
"A<13>v" ":7v"
"A<12>v" ":8v"
"A<11>v" ":9v"
"A<10>v" ":10v"
"A<9>v" ":11v"
"A<8>v" ":12v"
"A<7>v" ":13v"
"A<6>v" ":14v"
"A<5>v" ":15v"
"A<4>v" ":16v"
"A<3>v" ":17v"
"A<2>v" ":18v"
"A<1>v" ":19v"
"A<0>v" ":20v"
"Ack<4>v" ":21v"
"Ack<3>v" ":22v"
"Ack<2>v" ":23v"
"Ack<1>v" ":24v"
"Ack<0>v" ":25v"
"Aselv" ":26v"
"Bk0_Ack<4>v" ":27v"
"Bk0_Ack<3>v" ":28v"
"Bk0_Ack<2>v" ":29v"
"Bk0_Ack<1>v" ":30v"
"Bk0_Ack<0>v" ":31v"
"Bk0_Addr<19>v" ":32v"
"Bk0_Addr<18>v" ":33v"
"Bk0_Addr<17>v" ":34v"
"Bk0_Addr<16>v" ":35v"
"Bk0_Addr<15>v" ":36v"
"Bk0_Addr<14>v" ":37v"
"Bk0_Addr<13>v" ":38v"
"Bk0_Addr<12>v" ":39v"
"Bk0_Addr<11>v" ":40v"
"Bk0_Addr<10>v" ":41v"
"Bk0_Addr<9>v" ":42v"
"Bk0_Addr<8>v" ":43v"
"Bk0_Addr<7>v" ":44v"
"Bk0_Addr<6>v" ":45v"
"Bk0_Addr<5>v" ":46v"
"Bk0_Addr<4>v" ":47v"
"Bk0_Addr<3>v" ":48v"
"Bk0_Addr<2>v" ":49v"
"Bk0_Addr<1>v" ":50v"
"Bk0_Addr<0>v" ":51v"
"Bk0_RW<1>v" ":52v"
"Bk0_RW<0>v" ":53v"
"Bk0_RWAckv" ":54v"
"Bk1_Ack<4>v" ":55v"
"Bk1_Ack<3>v" ":56v"
"Bk1_Ack<2>v" ":57v"
"Bk1_Ack<1>v" ":58v"
"Bk1_Ack<0>v" ":59v"
"Bk1_Addr<19>v" ":60v"
"Bk1_Addr<18>v" ":61v"
"Bk1_Addr<17>v" ":62v"
"Bk1_Addr<16>v" ":63v"
"Bk1_Addr<15>v" ":64v"
"Bk1_Addr<14>v" ":65v"
"Bk1_Addr<13>v" ":66v"
"Bk1_Addr<12>v" ":67v"
"Bk1_Addr<11>v" ":68v"
"Bk1_Addr<10>v" ":69v"
"Bk1_Addr<9>v" ":70v"
"Bk1_Addr<8>v" ":71v"
"Bk1_Addr<7>v" ":72v"
"Bk1_Addr<6>v" ":73v"
"Bk1_Addr<5>v" ":74v"
"Bk1_Addr<4>v" ":75v"
"Bk1_Addr<3>v" ":76v"
"Bk1_Addr<2>v" ":77v"
"Bk1_Addr<1>v" ":78v"
"Bk1_Addr<0>v" ":79v"
"Bk1_RW<1>v" ":80v"
"Bk1_RW<0>v" ":81v"
"Bk1_RWAckv" ":82v"
"Bk2_Ack<4>v" ":83v"
"Bk2_Ack<3>v" ":84v"
"Bk2_Ack<2>v" ":85v"
"Bk2_Ack<1>v" ":86v"
"Bk2_Ack<0>v" ":87v"
"Bk2_Addr<19>v" ":88v"
"Bk2_Addr<18>v" ":89v"
"Bk2_Addr<17>v" ":90v"
"Bk2_Addr<16>v" ":91v"
"Bk2_Addr<15>v" ":92v"
"Bk2_Addr<14>v" ":93v"
"Bk2_Addr<13>v" ":94v"
"Bk2_Addr<12>v" ":95v"
"Bk2_Addr<11>v" ":96v"
"Bk2_Addr<10>v" ":97v"
"Bk2_Addr<9>v" ":98v"
"Bk2_Addr<8>v" ":99v"
"Bk2_Addr<7>v" ":100v"
"Bk2_Addr<6>v" ":101v"
"Bk2_Addr<5>v" ":102v"
"Bk2_Addr<4>v" ":103v"
"Bk2_Addr<3>v" ":104v"
"Bk2_Addr<2>v" ":105v"
"Bk2_Addr<1>v" ":106v"
"Bk2_Addr<0>v" ":107v"
"Bk2_RW<1>v" ":108v"
"Bk2_RW<0>v" ":109v"
"Bk2_RWAckv" ":110v"
"Bk3_Ack<4>v" ":111v"
"Bk3_Ack<3>v" ":112v"
"Bk3_Ack<2>v" ":113v"
"Bk3_Ack<1>v" ":114v"
"Bk3_Ack<0>v" ":115v"
"Bk3_Addr<19>v" ":116v"
"Bk3_Addr<18>v" ":117v"
"Bk3_Addr<17>v" ":118v"
"Bk3_Addr<16>v" ":119v"
"Bk3_Addr<15>v" ":120v"
"Bk3_Addr<14>v" ":121v"
"Bk3_Addr<13>v" ":122v"
"Bk3_Addr<12>v" ":123v"
"Bk3_Addr<11>v" ":124v"
"Bk3_Addr<10>v" ":125v"
"Bk3_Addr<9>v" ":126v"
"Bk3_Addr<8>v" ":127v"
"Bk3_Addr<7>v" ":128v"
"Bk3_Addr<6>v" ":129v"
"Bk3_Addr<5>v" ":130v"
"Bk3_Addr<4>v" ":131v"
"Bk3_Addr<3>v" ":132v"
"Bk3_Addr<2>v" ":133v"
"Bk3_Addr<1>v" ":134v"
"Bk3_Addr<0>v" ":135v"
"Bk3_RW<1>v" ":136v"
"Bk3_RW<0>v" ":137v"
"Bk3_RWAckv" ":138v"
"Bselv" ":139v"
"Cselv" ":140v"
"Dselv" ":141v"
"RW<1>v" ":142v"
"RW<0>v" ":143v"
"RW_Ackv" ":144v"
