HEADER
"PSFversion" "1.00"
"I25n I24n I23n I22n" "_sub111"
"A1_1of4<3>v" ":1v"
"A1_1of4<2>v" ":2v"
"A1_1of4<1>v" ":3v"
"A1_1of4<0>v" ":4v"
"A2_1of4<3>v" ":5v"
"A2_1of4<2>v" ":6v"
"A2_1of4<1>v" ":7v"
"A2_1of4<0>v" ":8v"
"A3_1of4<3>v" ":9v"
"A3_1of4<2>v" ":10v"
"A3_1of4<1>v" ":11v"
"A3_1of4<0>v" ":12v"
"A4_1of4<3>v" ":13v"
"A4_1of4<2>v" ":14v"
"A4_1of4<1>v" ":15v"
"A4_1of4<0>v" ":16v"
"A_Ack<3>v" ":17v"
"A_Ack<2>v" ":18v"
"A_Ack<1>v" ":19v"
"A_Ack<0>v" ":20v"
"Aselv" ":21v"
"B1_1of4<3>v" ":22v"
"B1_1of4<2>v" ":23v"
"B1_1of4<1>v" ":24v"
"B1_1of4<0>v" ":25v"
"B2_1of4<3>v" ":26v"
"B2_1of4<2>v" ":27v"
"B2_1of4<1>v" ":28v"
"B2_1of4<0>v" ":29v"
"B3_1of4<3>v" ":30v"
"B3_1of4<2>v" ":31v"
"B3_1of4<1>v" ":32v"
"B3_1of4<0>v" ":33v"
"B4_1of4<3>v" ":34v"
"B4_1of4<2>v" ":35v"
"B4_1of4<1>v" ":36v"
"B4_1of4<0>v" ":37v"
"B_Ack<3>v" ":38v"
"B_Ack<2>v" ":39v"
"B_Ack<1>v" ":40v"
"B_Ack<0>v" ":41v"
"Bselv" ":42v"
"C1_1of4<3>v" ":43v"
"C1_1of4<2>v" ":44v"
"C1_1of4<1>v" ":45v"
"C1_1of4<0>v" ":46v"
"C2_1of4<3>v" ":47v"
"C2_1of4<2>v" ":48v"
"C2_1of4<1>v" ":49v"
"C2_1of4<0>v" ":50v"
"C3_1of4<3>v" ":51v"
"C3_1of4<2>v" ":52v"
"C3_1of4<1>v" ":53v"
"C3_1of4<0>v" ":54v"
"C4_1of4<3>v" ":55v"
"C4_1of4<2>v" ":56v"
"C4_1of4<1>v" ":57v"
"C4_1of4<0>v" ":58v"
"C_Ack<3>v" ":59v"
"C_Ack<2>v" ":60v"
"C_Ack<1>v" ":61v"
"C_Ack<0>v" ":62v"
"Ack<3>v" ":63v"
"Ack<2>v" ":64v"
"Ack<1>v" ":65v"
"Ack<0>v" ":66v"
"Cselv" ":67v"
"D1_1of4<3>v" ":68v"
"D1_1of4<2>v" ":69v"
"D1_1of4<1>v" ":70v"
"D1_1of4<0>v" ":71v"
"D2_1of4<3>v" ":72v"
"D2_1of4<2>v" ":73v"
"D2_1of4<1>v" ":74v"
"D2_1of4<0>v" ":75v"
"D3_1of4<3>v" ":76v"
"D3_1of4<2>v" ":77v"
"D3_1of4<1>v" ":78v"
"D3_1of4<0>v" ":79v"
"D4_1of4<3>v" ":80v"
"D4_1of4<2>v" ":81v"
"D4_1of4<1>v" ":82v"
"D4_1of4<0>v" ":83v"
"D_Ack<3>v" ":84v"
"D_Ack<2>v" ":85v"
"D_Ack<1>v" ":86v"
"D_Ack<0>v" ":87v"
"Dselv" ":88v"
"Out1_1of4<3>v" ":89v"
"Out1_1of4<2>v" ":90v"
"Out1_1of4<1>v" ":91v"
"Out1_1of4<0>v" ":92v"
"Out2_1of4<3>v" ":93v"
"Out2_1of4<2>v" ":94v"
"Out2_1of4<1>v" ":95v"
"Out2_1of4<0>v" ":96v"
"Out3_1of4<3>v" ":97v"
"Out3_1of4<2>v" ":98v"
"Out3_1of4<1>v" ":99v"
"Out3_1of4<0>v" ":100v"
"Out4_1of4<3>v" ":101v"
"Out4_1of4<2>v" ":102v"
"Out4_1of4<1>v" ":103v"
"Out4_1of4<0>v" ":104v"
