HEADER
"PSFversion" "1.00"
"b_ackv" "b_ackv"
"d<1>v" "d_1v"
"d<0>v" "d_0v"
"in<1>v" "in_1v"
"net55v" "net55v"
"b<1>v" "b_1v"
"b<0>v" "b_0v"
"d_ackv" "d_ackv"
"cselv" "cselv"
"dselv" "dselv"
"aselv" "aselv"
"c<1>v" "c_1v"
"c<0>v" "c_0v"
"a<0>v" "a_0v"
"in<0>v" "in_0v"
"bselv" "bselv"
"a<1>v" "a_1v"
"c_ackv" "c_ackv"
"ackv" "ackv"
"a_ackv" "a_ackv"
"net54v" "net54v"
