HEADER
"PSFversion" "1.00"
"I15n I14n I13n I12n I11n I10n I9n I8n I7n I6n I5n I4n I3n I2n I1n I0n" "_sub139"
"I19n I18n I17n I16n" "_sub140"
"I25n I22n I21n I20n" "_sub142"
"I29<4>v" "I29_4v"
"I24n" "_sub143"
"I29<3>v" "I29_3v"
"I29<2>v" "I29_2v"
"I29<1>v" "I29_1v"
"I29<0>v" "I29_0v"
"I29<4>n I29<3>n I29<2>n I29<1>n I29<0>n" "inv_1x"
"A<19>v" ":1v"
"A<18>v" ":2v"
"A<17>v" ":3v"
"A<16>v" ":4v"
"A<15>v" ":5v"
"A<14>v" ":6v"
"A<13>v" ":7v"
"A<12>v" ":8v"
"A<11>v" ":9v"
"A<10>v" ":10v"
"A<9>v" ":11v"
"A<8>v" ":12v"
"A<7>v" ":13v"
"A<6>v" ":14v"
"A<5>v" ":15v"
"A<4>v" ":16v"
"A<3>v" ":17v"
"A<2>v" ":18v"
"A<1>v" ":19v"
"A<0>v" ":20v"
"Ackv" ":21v"
"Ctrl_Ack<4>v" ":22v"
"Ctrl_Ack<3>v" ":23v"
"Ctrl_Ack<2>v" ":24v"
"Ctrl_Ack<1>v" ":25v"
"Ctrl_Ack<0>v" ":26v"
"RD_8of32<31>v" ":27v"
"RD_8of32<30>v" ":28v"
"RD_8of32<29>v" ":29v"
"RD_8of32<28>v" ":30v"
"RD_8of32<27>v" ":31v"
"RD_8of32<26>v" ":32v"
"RD_8of32<25>v" ":33v"
"RD_8of32<24>v" ":34v"
"RD_8of32<23>v" ":35v"
"RD_8of32<22>v" ":36v"
"RD_8of32<21>v" ":37v"
"RD_8of32<20>v" ":38v"
"RD_8of32<19>v" ":39v"
"RD_8of32<18>v" ":40v"
"RD_8of32<17>v" ":41v"
"RD_8of32<16>v" ":42v"
"RD_8of32<15>v" ":43v"
"RD_8of32<14>v" ":44v"
"RD_8of32<13>v" ":45v"
"RD_8of32<12>v" ":46v"
"RD_8of32<11>v" ":47v"
"RD_8of32<10>v" ":48v"
"RD_8of32<9>v" ":49v"
"RD_8of32<8>v" ":50v"
"RD_8of32<7>v" ":51v"
"RD_8of32<6>v" ":52v"
"RD_8of32<5>v" ":53v"
"RD_8of32<4>v" ":54v"
"RD_8of32<3>v" ":55v"
"RD_8of32<2>v" ":56v"
"RD_8of32<1>v" ":57v"
"RD_8of32<0>v" ":58v"
"RD_Ack<7>v" ":59v"
"RD_Ack<6>v" ":60v"
"RD_Ack<5>v" ":61v"
"RD_Ack<4>v" ":62v"
"RD_Ack<3>v" ":63v"
"RD_Ack<2>v" ":64v"
"RD_Ack<1>v" ":65v"
"RD_Ack<0>v" ":66v"
"RW<1>v" ":67v"
"RW<0>v" ":68v"
"WD_8of32<31>v" ":69v"
"WD_8of32<30>v" ":70v"
"WD_8of32<29>v" ":71v"
"WD_8of32<28>v" ":72v"
"WD_8of32<27>v" ":73v"
"WD_8of32<26>v" ":74v"
"WD_8of32<25>v" ":75v"
"WD_8of32<24>v" ":76v"
"WD_8of32<23>v" ":77v"
"WD_8of32<22>v" ":78v"
"WD_8of32<21>v" ":79v"
"WD_8of32<20>v" ":80v"
"WD_8of32<19>v" ":81v"
"WD_8of32<18>v" ":82v"
"WD_8of32<17>v" ":83v"
"WD_8of32<16>v" ":84v"
"WD_8of32<15>v" ":85v"
"WD_8of32<14>v" ":86v"
"WD_8of32<13>v" ":87v"
"WD_8of32<12>v" ":88v"
"WD_8of32<11>v" ":89v"
"WD_8of32<10>v" ":90v"
"WD_8of32<9>v" ":91v"
"WD_8of32<8>v" ":92v"
"WD_8of32<7>v" ":93v"
"WD_8of32<6>v" ":94v"
"WD_8of32<5>v" ":95v"
"WD_8of32<4>v" ":96v"
"WD_8of32<3>v" ":97v"
"WD_8of32<2>v" ":98v"
"WD_8of32<1>v" ":99v"
"WD_8of32<0>v" ":100v"
"WD_Ack<7>v" ":101v"
"WD_Ack<6>v" ":102v"
"WD_Ack<5>v" ":103v"
"WD_Ack<4>v" ":104v"
"WD_Ack<3>v" ":105v"
"WD_Ack<2>v" ":106v"
"WD_Ack<1>v" ":107v"
"WD_Ack<0>v" ":108v"
