HEADER
"PSFversion" "1.00"
"I41n I40n I1n I0n" "_sub82"
"I37n I4n I47n I5n" "_sub86"
"I32n I6n" "_sub87"
"I48n I7n" "_sub90"
"I62<5>v" "I62_5v"
"I54n I51n I49n I31n I52n I53n I16n I8n" "_sub93"
"I62<4>v" "I62_4v"
"I62<3>v" "I62_3v"
"I62<2>v" "I62_2v"
"I62<1>v" "I62_1v"
"I62<0>v" "I62_0v"
"I55<5>v" "I55_5v"
"I55<4>v" "I55_4v"
"I55<3>v" "I55_3v"
"I55<2>v" "I55_2v"
"I55<1>v" "I55_1v"
"I55<0>v" "I55_0v"
"I30<7>v" "I30_7v"
"I30<6>v" "I30_6v"
"I30<5>v" "I30_5v"
"I30<4>v" "I30_4v"
"I30<3>v" "I30_3v"
"I30<2>v" "I30_2v"
"I30<1>v" "I30_1v"
"I30<0>v" "I30_0v"
"I12<7>v" "I12_7v"
"I12<6>v" "I12_6v"
"I12<5>v" "I12_5v"
"I12<4>v" "I12_4v"
"I12<3>v" "I12_3v"
"I12<2>v" "I12_2v"
"I12<1>v" "I12_1v"
"I12<0>v" "I12_0v"
"I61<5>v" "I61_5v"
"I62<5>n I62<4>n I62<3>n I62<2>n I62<1>n I62<0>n I55<5>n I55<4>n I55<3>n I55<2>n I55<1>n I55<0>n I30<7>n I30<6>n I30<5>n I30<4>n I30<3>n I30<2>n I30<1>n I30<0>n I12<7>n I12<6>n I12<5>n I12<4>n I12<3>n I12<2>n I12<1>n I12<0>n" "Decode_2to4"
"I61<4>v" "I61_4v"
"I61<3>v" "I61_3v"
"I61<2>v" "I61_2v"
"I61<1>v" "I61_1v"
"I61<0>v" "I61_0v"
"I56<5>v" "I56_5v"
"I56<4>v" "I56_4v"
"I56<3>v" "I56_3v"
"I56<2>v" "I56_2v"
"I56<1>v" "I56_1v"
"I56<0>v" "I56_0v"
"I29<7>v" "I29_7v"
"I29<6>v" "I29_6v"
"I29<5>v" "I29_5v"
"I29<4>v" "I29_4v"
"I29<3>v" "I29_3v"
"I29<2>v" "I29_2v"
"I29<1>v" "I29_1v"
"I29<0>v" "I29_0v"
"I68<5>v" "I68_5v"
"I68<4>v" "I68_4v"
"I68<3>v" "I68_3v"
"I68<2>v" "I68_2v"
"I68<1>v" "I68_1v"
"I68<0>v" "I68_0v"
"I13<7>v" "I13_7v"
"I13<6>v" "I13_6v"
"I13<5>v" "I13_5v"
"I13<4>v" "I13_4v"
"I13<3>v" "I13_3v"
"I13<2>v" "I13_2v"
"I13<1>v" "I13_1v"
"I13<0>v" "I13_0v"
"I64<5>v" "I64_5v"
"I64<4>v" "I64_4v"
"I64<3>v" "I64_3v"
"I64<2>v" "I64_2v"
"I64<1>v" "I64_1v"
"I64<0>v" "I64_0v"
"I61<5>n I61<4>n I61<3>n I61<2>n I61<1>n I61<0>n I66n I56<5>n I56<4>n I56<3>n I56<2>n I56<1>n I56<0>n I29<7>n I29<6>n I29<5>n I29<4>n I29<3>n I29<2>n I29<1>n I29<0>n I68<5>n I68<4>n I68<3>n I68<2>n I68<1>n I68<0>n I13<7>n I13<6>n I13<5>n I13<4>n I13<3>n I13<2>n I13<1>n I13<0>n I64<5>n I64<4>n I64<3>n I64<2>n I64<1>n I64<0>n I69n" "TH22"
"I35n I18n" "_sub95"
"I59n I58n I71n I70n" "basic_cds_thru_spectre"
"I50<7>v" "I50_7v"
"I46n I19n" "_sub95"
"I50<6>v" "I50_6v"
"I50<5>v" "I50_5v"
"I50<4>v" "I50_4v"
"I50<3>v" "I50_3v"
"I50<2>v" "I50_2v"
"I50<1>v" "I50_1v"
"I50<0>v" "I50_0v"
"I17<7>v" "I17_7v"
"I17<6>v" "I17_6v"
"I17<5>v" "I17_5v"
"I17<4>v" "I17_4v"
"I17<3>v" "I17_3v"
"I17<2>v" "I17_2v"
"I17<1>v" "I17_1v"
"I17<0>v" "I17_0v"
"I50<7>n I50<6>n I50<5>n I50<4>n I50<3>n I50<2>n I50<1>n I50<0>n I17<7>n I17<6>n I17<5>n I17<4>n I17<3>n I17<2>n I17<1>n I17<0>n" "Encode_4to2"
"I63n I67n" "_sub96"
"RData<31>v" ":1v"
"RData<30>v" ":2v"
"RData<29>v" ":3v"
"RData<28>v" ":4v"
"RData<27>v" ":5v"
"RData<26>v" ":6v"
"RData<25>v" ":7v"
"RData<24>v" ":8v"
"RData<23>v" ":9v"
"RData<22>v" ":10v"
"RData<21>v" ":11v"
"RData<20>v" ":12v"
"RData<19>v" ":13v"
"RData<18>v" ":14v"
"RData<17>v" ":15v"
"RData<16>v" ":16v"
"RData<15>v" ":17v"
"RData<14>v" ":18v"
"RData<13>v" ":19v"
"RData<12>v" ":20v"
"RData<11>v" ":21v"
"RData<10>v" ":22v"
"RData<9>v" ":23v"
"RData<8>v" ":24v"
"RData<7>v" ":25v"
"RData<6>v" ":26v"
"RData<5>v" ":27v"
"RData<4>v" ":28v"
"RData<3>v" ":29v"
"RData<2>v" ":30v"
"RData<1>v" ":31v"
"RData<0>v" ":32v"
"R_Address<11>v" ":33v"
"R_Address<10>v" ":34v"
"R_Address<9>v" ":35v"
"R_Address<8>v" ":36v"
"R_Address<7>v" ":37v"
"R_Address<6>v" ":38v"
"R_Address<5>v" ":39v"
"R_Address<4>v" ":40v"
"R_Address<3>v" ":41v"
"R_Address<2>v" ":42v"
"R_Address<1>v" ":43v"
"R_Address<0>v" ":44v"
"ReadAckv" ":45v"
"ReadEnv" ":46v"
"WData<31>v" ":47v"
"WData<30>v" ":48v"
"WData<29>v" ":49v"
"WData<28>v" ":50v"
"WData<27>v" ":51v"
"WData<26>v" ":52v"
"WData<25>v" ":53v"
"WData<24>v" ":54v"
"WData<23>v" ":55v"
"WData<22>v" ":56v"
"WData<21>v" ":57v"
"WData<20>v" ":58v"
"WData<19>v" ":59v"
"WData<18>v" ":60v"
"WData<17>v" ":61v"
"WData<16>v" ":62v"
"WData<15>v" ":63v"
"WData<14>v" ":64v"
"WData<13>v" ":65v"
"WData<12>v" ":66v"
"WData<11>v" ":67v"
"WData<10>v" ":68v"
"WData<9>v" ":69v"
"WData<8>v" ":70v"
"WData<7>v" ":71v"
"WData<6>v" ":72v"
"WData<5>v" ":73v"
"WData<4>v" ":74v"
"WData<3>v" ":75v"
"WData<2>v" ":76v"
"WData<1>v" ":77v"
"WData<0>v" ":78v"
"WDataAck<15>v" ":79v"
"WDataAck<14>v" ":80v"
"WDataAck<13>v" ":81v"
"WDataAck<12>v" ":82v"
"WDataAck<11>v" ":83v"
"WDataAck<10>v" ":84v"
"WDataAck<9>v" ":85v"
"WDataAck<8>v" ":86v"
"WDataAck<7>v" ":87v"
"WDataAck<6>v" ":88v"
"WDataAck<5>v" ":89v"
"WDataAck<4>v" ":90v"
"WDataAck<3>v" ":91v"
"WDataAck<2>v" ":92v"
"WDataAck<1>v" ":93v"
"WDataAck<0>v" ":94v"
"W_Address<11>v" ":95v"
"W_Address<10>v" ":96v"
"W_Address<9>v" ":97v"
"W_Address<8>v" ":98v"
"W_Address<7>v" ":99v"
"W_Address<6>v" ":100v"
"W_Address<5>v" ":101v"
"W_Address<4>v" ":102v"
"W_Address<3>v" ":103v"
"W_Address<2>v" ":104v"
"W_Address<1>v" ":105v"
"W_Address<0>v" ":106v"
"WriteAckv" ":107v"
"WriteEnv" ":108v"
