HEADER
"PSFversion" "1.00"
"I2_1of4<3>v" "I2_1of4_3v"
"I2_1of4<2>v" "I2_1of4_2v"
"I2_1of4<1>v" "I2_1of4_1v"
"I2_1of4<0>v" "I2_1of4_0v"
"I4_1of4<3>v" "I4_1of4_3v"
"I4_1of4<2>v" "I4_1of4_2v"
"I4_1of4<1>v" "I4_1of4_1v"
"I4_1of4<0>v" "I4_1of4_0v"
"Cselv" "Cselv"
"Aselv" "Aselv"
"Ack<7>v" "Ack_7v"
"Ack<6>v" "Ack_6v"
"Ack<5>v" "Ack_5v"
"Ack<4>v" "Ack_4v"
"Ack<3>v" "Ack_3v"
"Ack<2>v" "Ack_2v"
"Ack<1>v" "Ack_1v"
"Ack<0>v" "Ack_0v"
"D_8of32<31>v" "D_8of32_31v"
"D_8of32<30>v" "D_8of32_30v"
"D_8of32<29>v" "D_8of32_29v"
"D_8of32<28>v" "D_8of32_28v"
"D_8of32<27>v" "D_8of32_27v"
"D_8of32<26>v" "D_8of32_26v"
"D_8of32<25>v" "D_8of32_25v"
"D_8of32<24>v" "D_8of32_24v"
"D_8of32<23>v" "D_8of32_23v"
"D_8of32<22>v" "D_8of32_22v"
"D_8of32<21>v" "D_8of32_21v"
"D_8of32<20>v" "D_8of32_20v"
"D_8of32<19>v" "D_8of32_19v"
"D_8of32<18>v" "D_8of32_18v"
"D_8of32<17>v" "D_8of32_17v"
"D_8of32<16>v" "D_8of32_16v"
"D_8of32<15>v" "D_8of32_15v"
"D_8of32<14>v" "D_8of32_14v"
"D_8of32<13>v" "D_8of32_13v"
"D_8of32<12>v" "D_8of32_12v"
"D_8of32<11>v" "D_8of32_11v"
"D_8of32<10>v" "D_8of32_10v"
"D_8of32<9>v" "D_8of32_9v"
"D_8of32<8>v" "D_8of32_8v"
"D_8of32<7>v" "D_8of32_7v"
"D_8of32<6>v" "D_8of32_6v"
"D_8of32<5>v" "D_8of32_5v"
"D_8of32<4>v" "D_8of32_4v"
"D_8of32<3>v" "D_8of32_3v"
"D_8of32<2>v" "D_8of32_2v"
"D_8of32<1>v" "D_8of32_1v"
"D_8of32<0>v" "D_8of32_0v"
"C_Ack<7>v" "C_Ack_7v"
"C_Ack<6>v" "C_Ack_6v"
"C_Ack<5>v" "C_Ack_5v"
"C_Ack<4>v" "C_Ack_4v"
"C_Ack<3>v" "C_Ack_3v"
"C_Ack<2>v" "C_Ack_2v"
"C_Ack<1>v" "C_Ack_1v"
"C_Ack<0>v" "C_Ack_0v"
"A_Ack<7>v" "A_Ack_7v"
"A_Ack<6>v" "A_Ack_6v"
"A_Ack<5>v" "A_Ack_5v"
"A_Ack<4>v" "A_Ack_4v"
"A_Ack<3>v" "A_Ack_3v"
"A_Ack<2>v" "A_Ack_2v"
"A_Ack<1>v" "A_Ack_1v"
"A_Ack<0>v" "A_Ack_0v"
"I8_1of4<3>v" "I8_1of4_3v"
"I8_1of4<2>v" "I8_1of4_2v"
"I8_1of4<1>v" "I8_1of4_1v"
"I8_1of4<0>v" "I8_1of4_0v"
"D_Ack<7>v" "D_Ack_7v"
"D_Ack<6>v" "D_Ack_6v"
"D_Ack<5>v" "D_Ack_5v"
"D_Ack<4>v" "D_Ack_4v"
"D_Ack<3>v" "D_Ack_3v"
"D_Ack<2>v" "D_Ack_2v"
"D_Ack<1>v" "D_Ack_1v"
"D_Ack<0>v" "D_Ack_0v"
"Bselv" "Bselv"
"I6_1of4<3>v" "I6_1of4_3v"
"I6_1of4<2>v" "I6_1of4_2v"
"I6_1of4<1>v" "I6_1of4_1v"
"I6_1of4<0>v" "I6_1of4_0v"
"A_8of32<15>v" "A_8of32_15v"
"A_8of32<14>v" "A_8of32_14v"
"A_8of32<13>v" "A_8of32_13v"
"A_8of32<12>v" "A_8of32_12v"
"I1_1of4<3>v" "I1_1of4_3v"
"I1_1of4<2>v" "I1_1of4_2v"
"I1_1of4<1>v" "I1_1of4_1v"
"I1_1of4<0>v" "I1_1of4_0v"
"I3_1of4<3>v" "I3_1of4_3v"
"I3_1of4<2>v" "I3_1of4_2v"
"I3_1of4<1>v" "I3_1of4_1v"
"I3_1of4<0>v" "I3_1of4_0v"
"C_8of32<31>v" "C_8of32_31v"
"C_8of32<30>v" "C_8of32_30v"
"C_8of32<29>v" "C_8of32_29v"
"C_8of32<28>v" "C_8of32_28v"
"C_8of32<27>v" "C_8of32_27v"
"C_8of32<26>v" "C_8of32_26v"
"C_8of32<25>v" "C_8of32_25v"
"C_8of32<24>v" "C_8of32_24v"
"C_8of32<23>v" "C_8of32_23v"
"C_8of32<22>v" "C_8of32_22v"
"C_8of32<21>v" "C_8of32_21v"
"C_8of32<20>v" "C_8of32_20v"
"C_8of32<19>v" "C_8of32_19v"
"C_8of32<18>v" "C_8of32_18v"
"C_8of32<17>v" "C_8of32_17v"
"C_8of32<16>v" "C_8of32_16v"
"C_8of32<15>v" "C_8of32_15v"
"C_8of32<14>v" "C_8of32_14v"
"C_8of32<13>v" "C_8of32_13v"
"C_8of32<12>v" "C_8of32_12v"
"C_8of32<11>v" "C_8of32_11v"
"C_8of32<10>v" "C_8of32_10v"
"C_8of32<9>v" "C_8of32_9v"
"C_8of32<8>v" "C_8of32_8v"
"C_8of32<7>v" "C_8of32_7v"
"C_8of32<6>v" "C_8of32_6v"
"C_8of32<5>v" "C_8of32_5v"
"C_8of32<4>v" "C_8of32_4v"
"C_8of32<3>v" "C_8of32_3v"
"C_8of32<2>v" "C_8of32_2v"
"C_8of32<1>v" "C_8of32_1v"
"C_8of32<0>v" "C_8of32_0v"
"A_8of32<31>v" "A_8of32_31v"
"A_8of32<30>v" "A_8of32_30v"
"A_8of32<29>v" "A_8of32_29v"
"A_8of32<28>v" "A_8of32_28v"
"A_8of32<27>v" "A_8of32_27v"
"A_8of32<26>v" "A_8of32_26v"
"A_8of32<25>v" "A_8of32_25v"
"A_8of32<24>v" "A_8of32_24v"
"A_8of32<23>v" "A_8of32_23v"
"A_8of32<22>v" "A_8of32_22v"
"A_8of32<21>v" "A_8of32_21v"
"A_8of32<20>v" "A_8of32_20v"
"A_8of32<19>v" "A_8of32_19v"
"A_8of32<18>v" "A_8of32_18v"
"A_8of32<17>v" "A_8of32_17v"
"A_8of32<16>v" "A_8of32_16v"
"A_8of32<11>v" "A_8of32_11v"
"A_8of32<10>v" "A_8of32_10v"
"A_8of32<9>v" "A_8of32_9v"
"A_8of32<8>v" "A_8of32_8v"
"A_8of32<7>v" "A_8of32_7v"
"A_8of32<6>v" "A_8of32_6v"
"A_8of32<5>v" "A_8of32_5v"
"A_8of32<4>v" "A_8of32_4v"
"A_8of32<3>v" "A_8of32_3v"
"A_8of32<2>v" "A_8of32_2v"
"A_8of32<1>v" "A_8of32_1v"
"A_8of32<0>v" "A_8of32_0v"
"B_8of32<15>v" "B_8of32_15v"
"B_8of32<14>v" "B_8of32_14v"
"B_8of32<13>v" "B_8of32_13v"
"B_8of32<12>v" "B_8of32_12v"
"B_8of32<11>v" "B_8of32_11v"
"B_8of32<10>v" "B_8of32_10v"
"B_8of32<9>v" "B_8of32_9v"
"B_8of32<8>v" "B_8of32_8v"
"B_8of32<7>v" "B_8of32_7v"
"B_8of32<6>v" "B_8of32_6v"
"B_8of32<5>v" "B_8of32_5v"
"B_8of32<4>v" "B_8of32_4v"
"B_8of32<3>v" "B_8of32_3v"
"B_8of32<2>v" "B_8of32_2v"
"B_8of32<1>v" "B_8of32_1v"
"B_8of32<0>v" "B_8of32_0v"
"B_8of32<31>v" "B_8of32_31v"
"B_8of32<30>v" "B_8of32_30v"
"B_8of32<29>v" "B_8of32_29v"
"B_8of32<28>v" "B_8of32_28v"
"B_8of32<27>v" "B_8of32_27v"
"B_8of32<26>v" "B_8of32_26v"
"B_8of32<25>v" "B_8of32_25v"
"B_8of32<24>v" "B_8of32_24v"
"B_8of32<23>v" "B_8of32_23v"
"B_8of32<22>v" "B_8of32_22v"
"B_8of32<21>v" "B_8of32_21v"
"B_8of32<20>v" "B_8of32_20v"
"B_8of32<19>v" "B_8of32_19v"
"B_8of32<18>v" "B_8of32_18v"
"B_8of32<17>v" "B_8of32_17v"
"B_8of32<16>v" "B_8of32_16v"
"I7_1of4<3>v" "I7_1of4_3v"
"I7_1of4<2>v" "I7_1of4_2v"
"I7_1of4<1>v" "I7_1of4_1v"
"I7_1of4<0>v" "I7_1of4_0v"
"B_Ack<7>v" "B_Ack_7v"
"B_Ack<6>v" "B_Ack_6v"
"B_Ack<5>v" "B_Ack_5v"
"B_Ack<4>v" "B_Ack_4v"
"B_Ack<3>v" "B_Ack_3v"
"B_Ack<2>v" "B_Ack_2v"
"B_Ack<1>v" "B_Ack_1v"
"B_Ack<0>v" "B_Ack_0v"
"Dselv" "Dselv"
"I5_1of4<3>v" "I5_1of4_3v"
"I5_1of4<2>v" "I5_1of4_2v"
"I5_1of4<1>v" "I5_1of4_1v"
"I5_1of4<0>v" "I5_1of4_0v"
