HEADER
"PSFversion" "1.00"
"I3n I2n I1n I0n" "_sub105"
"I4n I5n" "_sub109"
"I6n" "_sub110"
"I7n" "_sub113"
"I20<5>v" "I20_5v"
"I16n I8n" "_sub116"
"I20<4>v" "I20_4v"
"I20<3>v" "I20_3v"
"I20<2>v" "I20_2v"
"I20<1>v" "I20_1v"
"I20<0>v" "I20_0v"
"I12<7>v" "I12_7v"
"I12<6>v" "I12_6v"
"I12<5>v" "I12_5v"
"I12<4>v" "I12_4v"
"I12<3>v" "I12_3v"
"I12<2>v" "I12_2v"
"I12<1>v" "I12_1v"
"I12<0>v" "I12_0v"
"I25<5>v" "I25_5v"
"I25<4>v" "I25_4v"
"I25<3>v" "I25_3v"
"I25<2>v" "I25_2v"
"I25<1>v" "I25_1v"
"I25<0>v" "I25_0v"
"I26<5>v" "I26_5v"
"I20<5>n I20<4>n I20<3>n I20<2>n I20<1>n I20<0>n I12<7>n I12<6>n I12<5>n I12<4>n I12<3>n I12<2>n I12<1>n I12<0>n I25<5>n I25<4>n I25<3>n I25<2>n I25<1>n I25<0>n" "Decode_2to4"
"I26<4>v" "I26_4v"
"I26<3>v" "I26_3v"
"I26<2>v" "I26_2v"
"I26<1>v" "I26_1v"
"I26<0>v" "I26_0v"
"I13<7>v" "I13_7v"
"I13<6>v" "I13_6v"
"I13<5>v" "I13_5v"
"I13<4>v" "I13_4v"
"I13<3>v" "I13_3v"
"I13<2>v" "I13_2v"
"I13<1>v" "I13_1v"
"I13<0>v" "I13_0v"
"I24<5>v" "I24_5v"
"I24<4>v" "I24_4v"
"I24<3>v" "I24_3v"
"I24<2>v" "I24_2v"
"I24<1>v" "I24_1v"
"I24<0>v" "I24_0v"
"I26<5>n I26<4>n I26<3>n I26<2>n I26<1>n I26<0>n I13<7>n I13<6>n I13<5>n I13<4>n I13<3>n I13<2>n I13<1>n I13<0>n I24<5>n I24<4>n I24<3>n I24<2>n I24<1>n I24<0>n" "TH22"
"I18n" "_sub118"
"I27n I23n" "basic_cds_thru_spectre"
"I17<7>v" "I17_7v"
"I19n" "_sub118"
"I17<6>v" "I17_6v"
"I17<5>v" "I17_5v"
"I17<4>v" "I17_4v"
"I17<3>v" "I17_3v"
"I17<2>v" "I17_2v"
"I17<1>v" "I17_1v"
"I17<0>v" "I17_0v"
"I17<7>n I17<6>n I17<5>n I17<4>n I17<3>n I17<2>n I17<1>n I17<0>n" "Encode_4to2"
"RData<15>v" ":1v"
"RData<14>v" ":2v"
"RData<13>v" ":3v"
"RData<12>v" ":4v"
"RData<11>v" ":5v"
"RData<10>v" ":6v"
"RData<9>v" ":7v"
"RData<8>v" ":8v"
"RData<7>v" ":9v"
"RData<6>v" ":10v"
"RData<5>v" ":11v"
"RData<4>v" ":12v"
"RData<3>v" ":13v"
"RData<2>v" ":14v"
"RData<1>v" ":15v"
"RData<0>v" ":16v"
"R_Address<11>v" ":17v"
"R_Address<10>v" ":18v"
"R_Address<9>v" ":19v"
"R_Address<8>v" ":20v"
"R_Address<7>v" ":21v"
"R_Address<6>v" ":22v"
"R_Address<5>v" ":23v"
"R_Address<4>v" ":24v"
"R_Address<3>v" ":25v"
"R_Address<2>v" ":26v"
"R_Address<1>v" ":27v"
"R_Address<0>v" ":28v"
"ReadAckv" ":29v"
"ReadEnv" ":30v"
"WData<15>v" ":31v"
"WData<14>v" ":32v"
"WData<13>v" ":33v"
"WData<12>v" ":34v"
"WData<11>v" ":35v"
"WData<10>v" ":36v"
"WData<9>v" ":37v"
"WData<8>v" ":38v"
"WData<7>v" ":39v"
"WData<6>v" ":40v"
"WData<5>v" ":41v"
"WData<4>v" ":42v"
"WData<3>v" ":43v"
"WData<2>v" ":44v"
"WData<1>v" ":45v"
"WData<0>v" ":46v"
"WDataAck<7>v" ":47v"
"WDataAck<6>v" ":48v"
"WDataAck<5>v" ":49v"
"WDataAck<4>v" ":50v"
"WDataAck<3>v" ":51v"
"WDataAck<2>v" ":52v"
"WDataAck<1>v" ":53v"
"WDataAck<0>v" ":54v"
"W_Address<11>v" ":55v"
"W_Address<10>v" ":56v"
"W_Address<9>v" ":57v"
"W_Address<8>v" ":58v"
"W_Address<7>v" ":59v"
"W_Address<6>v" ":60v"
"W_Address<5>v" ":61v"
"W_Address<4>v" ":62v"
"W_Address<3>v" ":63v"
"W_Address<2>v" ":64v"
"W_Address<1>v" ":65v"
"W_Address<0>v" ":66v"
"WriteAckv" ":67v"
"WriteEnv" ":68v"
