HEADER
"PSFversion" "1.00"
"I255n I247n I239n I231n I223n I215n I207n I199n I191n I183n I175n I167n I159n I151n I143n I135n I127n I119n I111n I103n I95n I87n I79n I71n I63n I55n I47n I39n I31n I23n I15n I254n I246n I238n I230n I222n I214n I206n I198n I190n I182n I174n I166n I158n I150n I142n I134n I126n I118n I110n I102n I94n I86n I78n I70n I62n I54n I46n I38n I30n I22n I14n I253n I245n I237n I229n I221n I213n I205n I197n I189n I181n I173n I165n I157n I149n I141n I133n I125n I117n I109n I101n I93n I85n I77n I69n I61n I53n I45n I37n I29n I21n I13n I252n I244n I236n I228n I220n I212n I204n I196n I188n I180n I172n I164n I156n I148n I140n I132n I124n I116n I108n I100n I92n I84n I76n I68n I60n I52n I44n I36n I28n I20n I12n I251n I243n I235n I227n I219n I211n I203n I195n I187n I179n I171n I163n I155n I147n I139n I131n I123n I115n I107n I99n I91n I83n I75n I67n I59n I51n I43n I35n I27n I19n I11n I250n I242n I234n I226n I218n I210n I202n I194n I186n I178n I170n I162n I154n I146n I138n I130n I122n I114n I106n I98n I90n I82n I74n I66n I58n I50n I42n I34n I26n I18n I10n I249n I241n I233n I225n I217n I209n I201n I193n I185n I177n I169n I161n I153n I145n I137n I129n I121n I113n I105n I97n I89n I81n I73n I65n I57n I49n I41n I33n I25n I17n I9n I248n I240n I232n I224n I216n I208n I200n I192n I184n I176n I168n I160n I152n I144n I136n I128n I120n I112n I104n I96n I88n I80n I72n I64n I56n I48n I40n I32n I24n I16n I8n I7n I6n I5n I4n I3n I2n I1n I0n" "_sub43"
"JR<31>v" ":1v"
"JR<30>v" ":2v"
"JR<29>v" ":3v"
"JR<28>v" ":4v"
"JR<27>v" ":5v"
"JR<26>v" ":6v"
"JR<25>v" ":7v"
"JR<24>v" ":8v"
"JR<23>v" ":9v"
"JR<22>v" ":10v"
"JR<21>v" ":11v"
"JR<20>v" ":12v"
"JR<19>v" ":13v"
"JR<18>v" ":14v"
"JR<17>v" ":15v"
"JR<16>v" ":16v"
"JR<15>v" ":17v"
"JR<14>v" ":18v"
"JR<13>v" ":19v"
"JR<12>v" ":20v"
"JR<11>v" ":21v"
"JR<10>v" ":22v"
"JR<9>v" ":23v"
"JR<8>v" ":24v"
"JR<7>v" ":25v"
"JR<6>v" ":26v"
"JR<5>v" ":27v"
"JR<4>v" ":28v"
"JR<3>v" ":29v"
"JR<2>v" ":30v"
"JR<1>v" ":31v"
"JR<0>v" ":32v"
"JW<31>v" ":33v"
"JW<30>v" ":34v"
"JW<29>v" ":35v"
"JW<28>v" ":36v"
"JW<27>v" ":37v"
"JW<26>v" ":38v"
"JW<25>v" ":39v"
"JW<24>v" ":40v"
"JW<23>v" ":41v"
"JW<22>v" ":42v"
"JW<21>v" ":43v"
"JW<20>v" ":44v"
"JW<19>v" ":45v"
"JW<18>v" ":46v"
"JW<17>v" ":47v"
"JW<16>v" ":48v"
"JW<15>v" ":49v"
"JW<14>v" ":50v"
"JW<13>v" ":51v"
"JW<12>v" ":52v"
"JW<11>v" ":53v"
"JW<10>v" ":54v"
"JW<9>v" ":55v"
"JW<8>v" ":56v"
"JW<7>v" ":57v"
"JW<6>v" ":58v"
"JW<5>v" ":59v"
"JW<4>v" ":60v"
"JW<3>v" ":61v"
"JW<2>v" ":62v"
"JW<1>v" ":63v"
"JW<0>v" ":64v"
"~R0<31>v" ":65v"
"~R0<30>v" ":66v"
"~R0<29>v" ":67v"
"~R0<28>v" ":68v"
"~R0<27>v" ":69v"
"~R0<26>v" ":70v"
"~R0<25>v" ":71v"
"~R0<24>v" ":72v"
"~R0<23>v" ":73v"
"~R0<22>v" ":74v"
"~R0<21>v" ":75v"
"~R0<20>v" ":76v"
"~R0<19>v" ":77v"
"~R0<18>v" ":78v"
"~R0<17>v" ":79v"
"~R0<16>v" ":80v"
"~R0<15>v" ":81v"
"~R0<14>v" ":82v"
"~R0<13>v" ":83v"
"~R0<12>v" ":84v"
"~R0<11>v" ":85v"
"~R0<10>v" ":86v"
"~R0<9>v" ":87v"
"~R0<8>v" ":88v"
"~R0<7>v" ":89v"
"~R0<6>v" ":90v"
"~R0<5>v" ":91v"
"~R0<4>v" ":92v"
"~R0<3>v" ":93v"
"~R0<2>v" ":94v"
"~R0<1>v" ":95v"
"~R0<0>v" ":96v"
"~R1<31>v" ":97v"
"~R1<30>v" ":98v"
"~R1<29>v" ":99v"
"~R1<28>v" ":100v"
"~R1<27>v" ":101v"
"~R1<26>v" ":102v"
"~R1<25>v" ":103v"
"~R1<24>v" ":104v"
"~R1<23>v" ":105v"
"~R1<22>v" ":106v"
"~R1<21>v" ":107v"
"~R1<20>v" ":108v"
"~R1<19>v" ":109v"
"~R1<18>v" ":110v"
"~R1<17>v" ":111v"
"~R1<16>v" ":112v"
"~R1<15>v" ":113v"
"~R1<14>v" ":114v"
"~R1<13>v" ":115v"
"~R1<12>v" ":116v"
"~R1<11>v" ":117v"
"~R1<10>v" ":118v"
"~R1<9>v" ":119v"
"~R1<8>v" ":120v"
"~R1<7>v" ":121v"
"~R1<6>v" ":122v"
"~R1<5>v" ":123v"
"~R1<4>v" ":124v"
"~R1<3>v" ":125v"
"~R1<2>v" ":126v"
"~R1<1>v" ":127v"
"~R1<0>v" ":128v"
"~W0<31>v" ":129v"
"~W0<30>v" ":130v"
"~W0<29>v" ":131v"
"~W0<28>v" ":132v"
"~W0<27>v" ":133v"
"~W0<26>v" ":134v"
"~W0<25>v" ":135v"
"~W0<24>v" ":136v"
"~W0<23>v" ":137v"
"~W0<22>v" ":138v"
"~W0<21>v" ":139v"
"~W0<20>v" ":140v"
"~W0<19>v" ":141v"
"~W0<18>v" ":142v"
"~W0<17>v" ":143v"
"~W0<16>v" ":144v"
"~W0<15>v" ":145v"
"~W0<14>v" ":146v"
"~W0<13>v" ":147v"
"~W0<12>v" ":148v"
"~W0<11>v" ":149v"
"~W0<10>v" ":150v"
"~W0<9>v" ":151v"
"~W0<8>v" ":152v"
"~W0<7>v" ":153v"
"~W0<6>v" ":154v"
"~W0<5>v" ":155v"
"~W0<4>v" ":156v"
"~W0<3>v" ":157v"
"~W0<2>v" ":158v"
"~W0<1>v" ":159v"
"~W0<0>v" ":160v"
"~W1<31>v" ":161v"
"~W1<30>v" ":162v"
"~W1<29>v" ":163v"
"~W1<28>v" ":164v"
"~W1<27>v" ":165v"
"~W1<26>v" ":166v"
"~W1<25>v" ":167v"
"~W1<24>v" ":168v"
"~W1<23>v" ":169v"
"~W1<22>v" ":170v"
"~W1<21>v" ":171v"
"~W1<20>v" ":172v"
"~W1<19>v" ":173v"
"~W1<18>v" ":174v"
"~W1<17>v" ":175v"
"~W1<16>v" ":176v"
"~W1<15>v" ":177v"
"~W1<14>v" ":178v"
"~W1<13>v" ":179v"
"~W1<12>v" ":180v"
"~W1<11>v" ":181v"
"~W1<10>v" ":182v"
"~W1<9>v" ":183v"
"~W1<8>v" ":184v"
"~W1<7>v" ":185v"
"~W1<6>v" ":186v"
"~W1<5>v" ":187v"
"~W1<4>v" ":188v"
"~W1<3>v" ":189v"
"~W1<2>v" ":190v"
"~W1<1>v" ":191v"
"~W1<0>v" ":192v"
