HEADER
"PSFversion" "1.00"
"Yv" "Yv"
"Bv" "Bv"
"Av" "Av"
"ntYbarv" "ntYbarv"
