HEADER
"PSFversion" "1.00"
"Av" "Av"
"net24v" "net24v"
"Fv" "Fv"
"net031v" "net031v"
"Yv" "Yv"
"net027v" "net027v"
"net25v" "net25v"
"Cv" "Cv"
"net23v" "net23v"
"Ev" "Ev"
"Dv" "Dv"
"Bv" "Bv"
