HEADER
"PSFversion" "1.00"
"ISRAM3n ISRAM1n ISRAM2n ISRAM0n" "\\6T_32x "
"M1n M0n M3n M10n M9n M6n M7n M13n M12n M15n M16n M22n M21n M18n M19n M4n" "NCSU_TechLib_FreePDK15_nfet_spectre"
"I4n I11n I20n I27n" "\\6T_32x_CTRL "
"I16n I13n" "nand4_1x"
"M5n M2n M11n M8n M17n M14n M20n M23n" "NCSU_TechLib_FreePDK15_pfet_spectre"
"C7n C3n C5n C6n C4n C2n C1n C0n" "analogLib_cap_spectre"
"B0v" "(FUNCTION or(mappedRoot(\".4@index\") mappedRoot(\".B0\")))v"
"B0v" ".B0v"
"B0v" ".\\4 v"
"B1v" "(FUNCTION or(mappedRoot(\".5@index\") mappedRoot(\".B1\")))v"
"B1v" ".B1v"
"B1v" ".\\5 v"
"A<31>v" "(FUNCTION or(mappedRoot(\".3[31]@index\") mappedRoot(\".A[31]\")))v"
"A<31>v" ".A[31]v"
"A<31>v" ".\\3[31] v"
"A<30>v" "(FUNCTION or(mappedRoot(\".3[30]@index\") mappedRoot(\".A[30]\")))v"
"A<30>v" ".A[30]v"
"A<30>v" ".\\3[30] v"
"A<29>v" "(FUNCTION or(mappedRoot(\".3[29]@index\") mappedRoot(\".A[29]\")))v"
"A<29>v" ".A[29]v"
"A<29>v" ".\\3[29] v"
"A<28>v" "(FUNCTION or(mappedRoot(\".3[28]@index\") mappedRoot(\".A[28]\")))v"
"A<28>v" ".A[28]v"
"A<28>v" ".\\3[28] v"
"A<27>v" "(FUNCTION or(mappedRoot(\".3[27]@index\") mappedRoot(\".A[27]\")))v"
"A<27>v" ".A[27]v"
"A<27>v" ".\\3[27] v"
"A<26>v" "(FUNCTION or(mappedRoot(\".3[26]@index\") mappedRoot(\".A[26]\")))v"
"A<26>v" ".A[26]v"
"A<26>v" ".\\3[26] v"
"A<25>v" "(FUNCTION or(mappedRoot(\".3[25]@index\") mappedRoot(\".A[25]\")))v"
"A<25>v" ".A[25]v"
"A<25>v" ".\\3[25] v"
"A<24>v" "(FUNCTION or(mappedRoot(\".3[24]@index\") mappedRoot(\".A[24]\")))v"
"A<24>v" ".A[24]v"
"A<24>v" ".\\3[24] v"
"A<23>v" "(FUNCTION or(mappedRoot(\".3[23]@index\") mappedRoot(\".A[23]\")))v"
"A<23>v" ".A[23]v"
"A<23>v" ".\\3[23] v"
"A<22>v" "(FUNCTION or(mappedRoot(\".3[22]@index\") mappedRoot(\".A[22]\")))v"
"A<22>v" ".A[22]v"
"A<22>v" ".\\3[22] v"
"A<21>v" "(FUNCTION or(mappedRoot(\".3[21]@index\") mappedRoot(\".A[21]\")))v"
"A<21>v" ".A[21]v"
"A<21>v" ".\\3[21] v"
"A<20>v" "(FUNCTION or(mappedRoot(\".3[20]@index\") mappedRoot(\".A[20]\")))v"
"A<20>v" ".A[20]v"
"A<20>v" ".\\3[20] v"
"A<19>v" "(FUNCTION or(mappedRoot(\".3[19]@index\") mappedRoot(\".A[19]\")))v"
"A<19>v" ".A[19]v"
"A<19>v" ".\\3[19] v"
"A<18>v" "(FUNCTION or(mappedRoot(\".3[18]@index\") mappedRoot(\".A[18]\")))v"
"A<18>v" ".A[18]v"
"A<18>v" ".\\3[18] v"
"A<17>v" "(FUNCTION or(mappedRoot(\".3[17]@index\") mappedRoot(\".A[17]\")))v"
"A<17>v" ".A[17]v"
"A<17>v" ".\\3[17] v"
"A<16>v" "(FUNCTION or(mappedRoot(\".3[16]@index\") mappedRoot(\".A[16]\")))v"
"A<16>v" ".A[16]v"
"A<16>v" ".\\3[16] v"
"A<15>v" "(FUNCTION or(mappedRoot(\".3[15]@index\") mappedRoot(\".A[15]\")))v"
"A<15>v" ".A[15]v"
"A<15>v" ".\\3[15] v"
"A<14>v" "(FUNCTION or(mappedRoot(\".3[14]@index\") mappedRoot(\".A[14]\")))v"
"A<14>v" ".A[14]v"
"A<14>v" ".\\3[14] v"
"A<13>v" "(FUNCTION or(mappedRoot(\".3[13]@index\") mappedRoot(\".A[13]\")))v"
"A<13>v" ".A[13]v"
"A<13>v" ".\\3[13] v"
"A<12>v" "(FUNCTION or(mappedRoot(\".3[12]@index\") mappedRoot(\".A[12]\")))v"
"A<12>v" ".A[12]v"
"A<12>v" ".\\3[12] v"
"A<11>v" "(FUNCTION or(mappedRoot(\".3[11]@index\") mappedRoot(\".A[11]\")))v"
"A<11>v" ".A[11]v"
"A<11>v" ".\\3[11] v"
"A<10>v" "(FUNCTION or(mappedRoot(\".3[10]@index\") mappedRoot(\".A[10]\")))v"
"A<10>v" ".A[10]v"
"A<10>v" ".\\3[10] v"
"A<9>v" "(FUNCTION or(mappedRoot(\".3[9]@index\") mappedRoot(\".A[9]\")))v"
"A<9>v" ".A[9]v"
"A<9>v" ".\\3[9] v"
"A<8>v" "(FUNCTION or(mappedRoot(\".3[8]@index\") mappedRoot(\".A[8]\")))v"
"A<8>v" ".A[8]v"
"A<8>v" ".\\3[8] v"
"A<7>v" "(FUNCTION or(mappedRoot(\".3[7]@index\") mappedRoot(\".A[7]\")))v"
"A<7>v" ".A[7]v"
"A<7>v" ".\\3[7] v"
"A<6>v" "(FUNCTION or(mappedRoot(\".3[6]@index\") mappedRoot(\".A[6]\")))v"
"A<6>v" ".A[6]v"
"A<6>v" ".\\3[6] v"
"A<5>v" "(FUNCTION or(mappedRoot(\".3[5]@index\") mappedRoot(\".A[5]\")))v"
"A<5>v" ".A[5]v"
"A<5>v" ".\\3[5] v"
"A<4>v" "(FUNCTION or(mappedRoot(\".3[4]@index\") mappedRoot(\".A[4]\")))v"
"A<4>v" ".A[4]v"
"A<4>v" ".\\3[4] v"
"A<3>v" "(FUNCTION or(mappedRoot(\".3[3]@index\") mappedRoot(\".A[3]\")))v"
"A<3>v" ".A[3]v"
"A<3>v" ".\\3[3] v"
"A<2>v" "(FUNCTION or(mappedRoot(\".3[2]@index\") mappedRoot(\".A[2]\")))v"
"A<2>v" ".A[2]v"
"A<2>v" ".\\3[2] v"
"A<1>v" "(FUNCTION or(mappedRoot(\".3[1]@index\") mappedRoot(\".A[1]\")))v"
"A<1>v" ".A[1]v"
"A<1>v" ".\\3[1] v"
"A<0>v" "(FUNCTION or(mappedRoot(\".3[0]@index\") mappedRoot(\".A[0]\")))v"
"A<0>v" ".A[0]v"
"A<0>v" ".\\3[0] v"
"W0v" "(FUNCTION or(mappedRoot(\".7@index\") mappedRoot(\".W0\")))v"
"W0v" ".W0v"
"W0v" ".\\7 v"
"W1v" "(FUNCTION or(mappedRoot(\".8@index\") mappedRoot(\".W1\")))v"
"W1v" ".W1v"
"W1v" ".\\8 v"
"S<3>v" "(FUNCTION or(mappedRoot(\".6[3]@index\") mappedRoot(\".S[3]\")))v"
"S<3>v" ".S[3]v"
"S<3>v" ".\\6[3] v"
"S<2>v" "(FUNCTION or(mappedRoot(\".6[2]@index\") mappedRoot(\".S[2]\")))v"
"S<2>v" ".S[2]v"
"S<2>v" ".\\6[2] v"
"S<1>v" "(FUNCTION or(mappedRoot(\".6[1]@index\") mappedRoot(\".S[1]\")))v"
"S<1>v" ".S[1]v"
"S<1>v" ".\\6[1] v"
"S<0>v" "(FUNCTION or(mappedRoot(\".6[0]@index\") mappedRoot(\".S[0]\")))v"
"S<0>v" ".S[0]v"
"S<0>v" ".\\6[0] v"
"SM0v" "(FUNCTION or(mappedRoot(\".1@index\") mappedRoot(\".SM0\")))v"
"SM0v" ".SM0v"
"SM0v" ".\\1 v"
"SM1v" "(FUNCTION or(mappedRoot(\".2@index\") mappedRoot(\".SM1\")))v"
"SM1v" ".SM1v"
"SM1v" ".\\2 v"
