HEADER
"PSFversion" "1.00"
"__artInstanceTerminalDelimiter__" "."
"__artHierarchyDelimiter__" "."
"__netlister__" "Cellview-based"
"__lib__" "16nm_Tests"
"__cell__" "MC_6TWrite_Test"
"__view__" "ams_config"
"__topcell__" "MC_6TWrite_Test"
