HEADER
"PSFversion" "1.00"
"I0n" "nor4_1x"
"I1n" "inv_1x"
"Av" "(FUNCTION or(mappedRoot(\".2@index\") mappedRoot(\".A\")))v"
"Av" ".Av"
"Av" ".\\2 v"
"Bv" "(FUNCTION or(mappedRoot(\".3@index\") mappedRoot(\".B\")))v"
"Bv" ".Bv"
"Bv" ".\\3 v"
"Cv" "(FUNCTION or(mappedRoot(\".4@index\") mappedRoot(\".C\")))v"
"Cv" ".Cv"
"Cv" ".\\4 v"
"Dv" "(FUNCTION or(mappedRoot(\".5@index\") mappedRoot(\".D\")))v"
"Dv" ".Dv"
"Dv" ".\\5 v"
"Yv" "(FUNCTION or(mappedRoot(\".1@index\") mappedRoot(\".Y\")))v"
"Yv" ".Yv"
"Yv" ".\\1 v"
