HEADER
"PSFversion" "1.00"
"I2n I10n" "inv_4x_PWR"
"V2n V1n" "UCD_Analog_Parts_vdc_spectre"
"I34n I33n" "_sub5"
"M0n M1n" "NCSU_TechLib_FreePDK15_pfet_spectre"
"I5n I4n" "_sub6"
"ISplit<1>n ISplit<0>n ILinen IVDDLn IVDDHn" "basic_cds_thru_spectre"
"C0n" "UCD_Analog_Parts_cap_spectre"
"V0n" "UCD_Analog_Parts_vpulse_spectre"
"I1n" "inv_1x_PWR"
"I11n I48n" "nand4_1x_PWR"
