HEADER
"PSFversion" "1.00"
"I7n I6n I5n I4n I3n I2n I1n I0n" "TH22"
"I18n I17n I16n I15n I14n I11n I10n I9n I8n" "inv_1x"
"I12n" "nor4_1x"
"I13n" "nand4_1x"
"ackv" ":1v"
"in<3>v" ":2v"
"in<2>v" ":3v"
"in<1>v" ":4v"
"in<0>v" ":5v"
"ninav" ":6v"
"out<3>v" ":7v"
"out<2>v" ":8v"
"out<1>v" ":9v"
"out<0>v" ":10v"
