HEADER
"PSFversion" "1.00"
"R1v" "R1v"
"R0v" "R0v"
"Lackv" "Lackv"
"Rackv" "Rackv"
"~R0v" "\\~R0v"
"net21v" "net21v"
"~R1v" "\\~R1v"
"L1v" "L1v"
"L0v" "L0v"
