HEADER
"PSFversion" "1.00"
"I77<3>v" "I77_3v"
"I77<2>v" "I77_2v"
"I77<1>v" "I77_1v"
"I77<0>v" "I77_0v"
"I76<3>v" "I76_3v"
"I76<2>v" "I76_2v"
"I76<1>v" "I76_1v"
"I76<0>v" "I76_0v"
"I75<3>v" "I75_3v"
"I75<2>v" "I75_2v"
"I75<1>v" "I75_1v"
"I75<0>v" "I75_0v"
"I73<3>v" "I73_3v"
"I73<2>v" "I73_2v"
"I73<1>v" "I73_1v"
"I73<0>v" "I73_0v"
"I72<3>v" "I72_3v"
"I72<2>v" "I72_2v"
"I72<1>v" "I72_1v"
"I72<0>v" "I72_0v"
"I71<3>v" "I71_3v"
"I71<2>v" "I71_2v"
"I71<1>v" "I71_1v"
"I71<0>v" "I71_0v"
"I70<3>v" "I70_3v"
"I70<2>v" "I70_2v"
"I70<1>v" "I70_1v"
"I70<0>v" "I70_0v"
"I74<3>v" "I74_3v"
"I74<2>v" "I74_2v"
"I74<1>v" "I74_1v"
"I74<0>v" "I74_0v"
"I3<31>v" "I3_31v"
"I3<30>v" "I3_30v"
"I3<29>v" "I3_29v"
"I3<28>v" "I3_28v"
"I3<27>v" "I3_27v"
"I3<26>v" "I3_26v"
"I3<25>v" "I3_25v"
"I3<24>v" "I3_24v"
"I3<23>v" "I3_23v"
"I3<22>v" "I3_22v"
"I3<21>v" "I3_21v"
"I3<20>v" "I3_20v"
"I3<19>v" "I3_19v"
"I3<18>v" "I3_18v"
"I3<17>v" "I3_17v"
"I3<16>v" "I3_16v"
"I3<15>v" "I3_15v"
"I3<14>v" "I3_14v"
"I3<13>v" "I3_13v"
"I3<12>v" "I3_12v"
"I3<11>v" "I3_11v"
"I3<10>v" "I3_10v"
"I3<9>v" "I3_9v"
"I3<8>v" "I3_8v"
"I3<7>v" "I3_7v"
"I3<6>v" "I3_6v"
"I3<5>v" "I3_5v"
"I3<4>v" "I3_4v"
"I3<3>v" "I3_3v"
"I3<2>v" "I3_2v"
"I3<1>v" "I3_1v"
"I3<0>v" "I3_0v"
"I2<31>v" "I2_31v"
"I2<30>v" "I2_30v"
"I2<29>v" "I2_29v"
"I2<28>v" "I2_28v"
"I2<27>v" "I2_27v"
"I2<26>v" "I2_26v"
"I2<25>v" "I2_25v"
"I2<24>v" "I2_24v"
"I2<23>v" "I2_23v"
"I2<22>v" "I2_22v"
"I2<21>v" "I2_21v"
"I2<20>v" "I2_20v"
"I2<19>v" "I2_19v"
"I2<18>v" "I2_18v"
"I2<17>v" "I2_17v"
"I2<16>v" "I2_16v"
"I2<15>v" "I2_15v"
"I2<14>v" "I2_14v"
"I2<13>v" "I2_13v"
"I2<12>v" "I2_12v"
"I2<11>v" "I2_11v"
"I2<10>v" "I2_10v"
"I2<9>v" "I2_9v"
"I2<8>v" "I2_8v"
"I2<7>v" "I2_7v"
"I2<6>v" "I2_6v"
"I2<5>v" "I2_5v"
"I2<4>v" "I2_4v"
"I2<3>v" "I2_3v"
"I2<2>v" "I2_2v"
"I2<1>v" "I2_1v"
"I2<0>v" "I2_0v"
"I1<31>v" "I1_31v"
"I1<30>v" "I1_30v"
"I1<29>v" "I1_29v"
"I1<28>v" "I1_28v"
"I1<27>v" "I1_27v"
"I1<26>v" "I1_26v"
"I1<25>v" "I1_25v"
"I1<24>v" "I1_24v"
"I1<23>v" "I1_23v"
"I1<22>v" "I1_22v"
"I1<21>v" "I1_21v"
"I1<20>v" "I1_20v"
"I1<19>v" "I1_19v"
"I1<18>v" "I1_18v"
"I1<17>v" "I1_17v"
"I1<16>v" "I1_16v"
"I1<15>v" "I1_15v"
"I1<14>v" "I1_14v"
"I1<13>v" "I1_13v"
"I1<12>v" "I1_12v"
"I1<11>v" "I1_11v"
"I1<10>v" "I1_10v"
"I1<9>v" "I1_9v"
"I1<8>v" "I1_8v"
"I1<7>v" "I1_7v"
"I1<6>v" "I1_6v"
"I1<5>v" "I1_5v"
"I1<4>v" "I1_4v"
"I1<3>v" "I1_3v"
"I1<2>v" "I1_2v"
"I1<1>v" "I1_1v"
"I1<0>v" "I1_0v"
"I0<31>v" "I0_31v"
"I0<30>v" "I0_30v"
"I0<29>v" "I0_29v"
"I0<28>v" "I0_28v"
"I0<27>v" "I0_27v"
"I0<26>v" "I0_26v"
"I0<25>v" "I0_25v"
"I0<24>v" "I0_24v"
"I0<23>v" "I0_23v"
"I0<22>v" "I0_22v"
"I0<21>v" "I0_21v"
"I0<20>v" "I0_20v"
"I0<19>v" "I0_19v"
"I0<18>v" "I0_18v"
"I0<17>v" "I0_17v"
"I0<16>v" "I0_16v"
"I0<15>v" "I0_15v"
"I0<14>v" "I0_14v"
"I0<13>v" "I0_13v"
"I0<12>v" "I0_12v"
"I0<11>v" "I0_11v"
"I0<10>v" "I0_10v"
"I0<9>v" "I0_9v"
"I0<8>v" "I0_8v"
"I0<7>v" "I0_7v"
"I0<6>v" "I0_6v"
"I0<5>v" "I0_5v"
"I0<4>v" "I0_4v"
"I0<3>v" "I0_3v"
"I0<2>v" "I0_2v"
"I0<1>v" "I0_1v"
"I0<0>v" "I0_0v"
"I5<31>v" "I5_31v"
"I77<3>n I77<2>n I77<1>n I77<0>n I76<3>n I76<2>n I76<1>n I76<0>n I75<3>n I75<2>n I75<1>n I75<0>n I73<3>n I73<2>n I73<1>n I73<0>n I72<3>n I72<2>n I72<1>n I72<0>n I71<3>n I71<2>n I71<1>n I71<0>n I70<3>n I70<2>n I70<1>n I70<0>n I66n I63n I59n I56n I52n I49n I45n I42n I37n I36n I35n I34n I33n I32n I31n I30n I74<3>n I74<2>n I74<1>n I74<0>n I3<31>n I3<30>n I3<29>n I3<28>n I3<27>n I3<26>n I3<25>n I3<24>n I3<23>n I3<22>n I3<21>n I3<20>n I3<19>n I3<18>n I3<17>n I3<16>n I3<15>n I3<14>n I3<13>n I3<12>n I3<11>n I3<10>n I3<9>n I3<8>n I3<7>n I3<6>n I3<5>n I3<4>n I3<3>n I3<2>n I3<1>n I3<0>n I2<31>n I2<30>n I2<29>n I2<28>n I2<27>n I2<26>n I2<25>n I2<24>n I2<23>n I2<22>n I2<21>n I2<20>n I2<19>n I2<18>n I2<17>n I2<16>n I2<15>n I2<14>n I2<13>n I2<12>n I2<11>n I2<10>n I2<9>n I2<8>n I2<7>n I2<6>n I2<5>n I2<4>n I2<3>n I2<2>n I2<1>n I2<0>n I1<31>n I1<30>n I1<29>n I1<28>n I1<27>n I1<26>n I1<25>n I1<24>n I1<23>n I1<22>n I1<21>n I1<20>n I1<19>n I1<18>n I1<17>n I1<16>n I1<15>n I1<14>n I1<13>n I1<12>n I1<11>n I1<10>n I1<9>n I1<8>n I1<7>n I1<6>n I1<5>n I1<4>n I1<3>n I1<2>n I1<1>n I1<0>n I0<31>n I0<30>n I0<29>n I0<28>n I0<27>n I0<26>n I0<25>n I0<24>n I0<23>n I0<22>n I0<21>n I0<20>n I0<19>n I0<18>n I0<17>n I0<16>n I0<15>n I0<14>n I0<13>n I0<12>n I0<11>n I0<10>n I0<9>n I0<8>n I0<7>n I0<6>n I0<5>n I0<4>n I0<3>n I0<2>n I0<1>n I0<0>n" "inv_1x"
"I5<30>v" "I5_30v"
"I5<29>v" "I5_29v"
"I5<28>v" "I5_28v"
"I5<27>v" "I5_27v"
"I5<26>v" "I5_26v"
"I5<25>v" "I5_25v"
"I5<24>v" "I5_24v"
"I5<23>v" "I5_23v"
"I5<22>v" "I5_22v"
"I5<21>v" "I5_21v"
"I5<20>v" "I5_20v"
"I5<19>v" "I5_19v"
"I5<18>v" "I5_18v"
"I5<17>v" "I5_17v"
"I5<16>v" "I5_16v"
"I5<15>v" "I5_15v"
"I5<14>v" "I5_14v"
"I5<13>v" "I5_13v"
"I5<12>v" "I5_12v"
"I5<11>v" "I5_11v"
"I5<10>v" "I5_10v"
"I5<9>v" "I5_9v"
"I5<8>v" "I5_8v"
"I5<7>v" "I5_7v"
"I5<6>v" "I5_6v"
"I5<5>v" "I5_5v"
"I5<4>v" "I5_4v"
"I5<3>v" "I5_3v"
"I5<2>v" "I5_2v"
"I5<1>v" "I5_1v"
"I5<0>v" "I5_0v"
"I4<31>v" "I4_31v"
"I4<30>v" "I4_30v"
"I4<29>v" "I4_29v"
"I4<28>v" "I4_28v"
"I4<27>v" "I4_27v"
"I4<26>v" "I4_26v"
"I4<25>v" "I4_25v"
"I4<24>v" "I4_24v"
"I4<23>v" "I4_23v"
"I4<22>v" "I4_22v"
"I4<21>v" "I4_21v"
"I4<20>v" "I4_20v"
"I4<19>v" "I4_19v"
"I4<18>v" "I4_18v"
"I4<17>v" "I4_17v"
"I4<16>v" "I4_16v"
"I4<15>v" "I4_15v"
"I4<14>v" "I4_14v"
"I4<13>v" "I4_13v"
"I4<12>v" "I4_12v"
"I4<11>v" "I4_11v"
"I4<10>v" "I4_10v"
"I4<9>v" "I4_9v"
"I4<8>v" "I4_8v"
"I4<7>v" "I4_7v"
"I4<6>v" "I4_6v"
"I4<5>v" "I4_5v"
"I4<4>v" "I4_4v"
"I4<3>v" "I4_3v"
"I4<2>v" "I4_2v"
"I4<1>v" "I4_1v"
"I4<0>v" "I4_0v"
"I5<31>n I5<30>n I5<29>n I5<28>n I5<27>n I5<26>n I5<25>n I5<24>n I5<23>n I5<22>n I5<21>n I5<20>n I5<19>n I5<18>n I5<17>n I5<16>n I5<15>n I5<14>n I5<13>n I5<12>n I5<11>n I5<10>n I5<9>n I5<8>n I5<7>n I5<6>n I5<5>n I5<4>n I5<3>n I5<2>n I5<1>n I5<0>n I4<31>n I4<30>n I4<29>n I4<28>n I4<27>n I4<26>n I4<25>n I4<24>n I4<23>n I4<22>n I4<21>n I4<20>n I4<19>n I4<18>n I4<17>n I4<16>n I4<15>n I4<14>n I4<13>n I4<12>n I4<11>n I4<10>n I4<9>n I4<8>n I4<7>n I4<6>n I4<5>n I4<4>n I4<3>n I4<2>n I4<1>n I4<0>n" "nand_1x"
"I68n I65n I62n I61n I58n I54n I51n I48n I47n I44n I39n I38n I13n I12n I11n I10n I9n I8n I7n I6n" "TH44"
"I67n I64n I60n I57n I53n I50n I46n I43n I23n I24n I25n I26n I22n I27n I28n I29n" "TH22"
"I55n I41n" "_sub55"
"KRev" ":1v"
"KRvv" ":2v"
"KWev" ":3v"
"KWvv" ":4v"
"R0<31>v" ":5v"
"R0<30>v" ":6v"
"R0<29>v" ":7v"
"R0<28>v" ":8v"
"R0<27>v" ":9v"
"R0<26>v" ":10v"
"R0<25>v" ":11v"
"R0<24>v" ":12v"
"R0<23>v" ":13v"
"R0<22>v" ":14v"
"R0<21>v" ":15v"
"R0<20>v" ":16v"
"R0<19>v" ":17v"
"R0<18>v" ":18v"
"R0<17>v" ":19v"
"R0<16>v" ":20v"
"R0<15>v" ":21v"
"R0<14>v" ":22v"
"R0<13>v" ":23v"
"R0<12>v" ":24v"
"R0<11>v" ":25v"
"R0<10>v" ":26v"
"R0<9>v" ":27v"
"R0<8>v" ":28v"
"R0<7>v" ":29v"
"R0<6>v" ":30v"
"R0<5>v" ":31v"
"R0<4>v" ":32v"
"R0<3>v" ":33v"
"R0<2>v" ":34v"
"R0<1>v" ":35v"
"R0<0>v" ":36v"
"R1<31>v" ":37v"
"R1<30>v" ":38v"
"R1<29>v" ":39v"
"R1<28>v" ":40v"
"R1<27>v" ":41v"
"R1<26>v" ":42v"
"R1<25>v" ":43v"
"R1<24>v" ":44v"
"R1<23>v" ":45v"
"R1<22>v" ":46v"
"R1<21>v" ":47v"
"R1<20>v" ":48v"
"R1<19>v" ":49v"
"R1<18>v" ":50v"
"R1<17>v" ":51v"
"R1<16>v" ":52v"
"R1<15>v" ":53v"
"R1<14>v" ":54v"
"R1<13>v" ":55v"
"R1<12>v" ":56v"
"R1<11>v" ":57v"
"R1<10>v" ":58v"
"R1<9>v" ":59v"
"R1<8>v" ":60v"
"R1<7>v" ":61v"
"R1<6>v" ":62v"
"R1<5>v" ":63v"
"R1<4>v" ":64v"
"R1<3>v" ":65v"
"R1<2>v" ":66v"
"R1<1>v" ":67v"
"R1<0>v" ":68v"
"Re2<7>v" ":69v"
"Re2<6>v" ":70v"
"Re2<5>v" ":71v"
"Re2<4>v" ":72v"
"Re2<3>v" ":73v"
"Re2<2>v" ":74v"
"Re2<1>v" ":75v"
"Re2<0>v" ":76v"
"W0<31>v" ":77v"
"W0<30>v" ":78v"
"W0<29>v" ":79v"
"W0<28>v" ":80v"
"W0<27>v" ":81v"
"W0<26>v" ":82v"
"W0<25>v" ":83v"
"W0<24>v" ":84v"
"W0<23>v" ":85v"
"W0<22>v" ":86v"
"W0<21>v" ":87v"
"W0<20>v" ":88v"
"W0<19>v" ":89v"
"W0<18>v" ":90v"
"W0<17>v" ":91v"
"W0<16>v" ":92v"
"W0<15>v" ":93v"
"W0<14>v" ":94v"
"W0<13>v" ":95v"
"W0<12>v" ":96v"
"W0<11>v" ":97v"
"W0<10>v" ":98v"
"W0<9>v" ":99v"
"W0<8>v" ":100v"
"W0<7>v" ":101v"
"W0<6>v" ":102v"
"W0<5>v" ":103v"
"W0<4>v" ":104v"
"W0<3>v" ":105v"
"W0<2>v" ":106v"
"W0<1>v" ":107v"
"W0<0>v" ":108v"
"W1<31>v" ":109v"
"W1<30>v" ":110v"
"W1<29>v" ":111v"
"W1<28>v" ":112v"
"W1<27>v" ":113v"
"W1<26>v" ":114v"
"W1<25>v" ":115v"
"W1<24>v" ":116v"
"W1<23>v" ":117v"
"W1<22>v" ":118v"
"W1<21>v" ":119v"
"W1<20>v" ":120v"
"W1<19>v" ":121v"
"W1<18>v" ":122v"
"W1<17>v" ":123v"
"W1<16>v" ":124v"
"W1<15>v" ":125v"
"W1<14>v" ":126v"
"W1<13>v" ":127v"
"W1<12>v" ":128v"
"W1<11>v" ":129v"
"W1<10>v" ":130v"
"W1<9>v" ":131v"
"W1<8>v" ":132v"
"W1<7>v" ":133v"
"W1<6>v" ":134v"
"W1<5>v" ":135v"
"W1<4>v" ":136v"
"W1<3>v" ":137v"
"W1<2>v" ":138v"
"W1<1>v" ":139v"
"W1<0>v" ":140v"
"We<7>v" ":141v"
"We<6>v" ":142v"
"We<5>v" ":143v"
"We<4>v" ":144v"
"We<3>v" ":145v"
"We<2>v" ":146v"
"We<1>v" ":147v"
"We<0>v" ":148v"
"~R0<31>v" ":149v"
"~R0<30>v" ":150v"
"~R0<29>v" ":151v"
"~R0<28>v" ":152v"
"~R0<27>v" ":153v"
"~R0<26>v" ":154v"
"~R0<25>v" ":155v"
"~R0<24>v" ":156v"
"~R0<23>v" ":157v"
"~R0<22>v" ":158v"
"~R0<21>v" ":159v"
"~R0<20>v" ":160v"
"~R0<19>v" ":161v"
"~R0<18>v" ":162v"
"~R0<17>v" ":163v"
"~R0<16>v" ":164v"
"~R0<15>v" ":165v"
"~R0<14>v" ":166v"
"~R0<13>v" ":167v"
"~R0<12>v" ":168v"
"~R0<11>v" ":169v"
"~R0<10>v" ":170v"
"~R0<9>v" ":171v"
"~R0<8>v" ":172v"
"~R0<7>v" ":173v"
"~R0<6>v" ":174v"
"~R0<5>v" ":175v"
"~R0<4>v" ":176v"
"~R0<3>v" ":177v"
"~R0<2>v" ":178v"
"~R0<1>v" ":179v"
"~R0<0>v" ":180v"
"~R1<31>v" ":181v"
"~R1<30>v" ":182v"
"~R1<29>v" ":183v"
"~R1<28>v" ":184v"
"~R1<27>v" ":185v"
"~R1<26>v" ":186v"
"~R1<25>v" ":187v"
"~R1<24>v" ":188v"
"~R1<23>v" ":189v"
"~R1<22>v" ":190v"
"~R1<21>v" ":191v"
"~R1<20>v" ":192v"
"~R1<19>v" ":193v"
"~R1<18>v" ":194v"
"~R1<17>v" ":195v"
"~R1<16>v" ":196v"
"~R1<15>v" ":197v"
"~R1<14>v" ":198v"
"~R1<13>v" ":199v"
"~R1<12>v" ":200v"
"~R1<11>v" ":201v"
"~R1<10>v" ":202v"
"~R1<9>v" ":203v"
"~R1<8>v" ":204v"
"~R1<7>v" ":205v"
"~R1<6>v" ":206v"
"~R1<5>v" ":207v"
"~R1<4>v" ":208v"
"~R1<3>v" ":209v"
"~R1<2>v" ":210v"
"~R1<1>v" ":211v"
"~R1<0>v" ":212v"
"~W0<31>v" ":213v"
"~W0<30>v" ":214v"
"~W0<29>v" ":215v"
"~W0<28>v" ":216v"
"~W0<27>v" ":217v"
"~W0<26>v" ":218v"
"~W0<25>v" ":219v"
"~W0<24>v" ":220v"
"~W0<23>v" ":221v"
"~W0<22>v" ":222v"
"~W0<21>v" ":223v"
"~W0<20>v" ":224v"
"~W0<19>v" ":225v"
"~W0<18>v" ":226v"
"~W0<17>v" ":227v"
"~W0<16>v" ":228v"
"~W0<15>v" ":229v"
"~W0<14>v" ":230v"
"~W0<13>v" ":231v"
"~W0<12>v" ":232v"
"~W0<11>v" ":233v"
"~W0<10>v" ":234v"
"~W0<9>v" ":235v"
"~W0<8>v" ":236v"
"~W0<7>v" ":237v"
"~W0<6>v" ":238v"
"~W0<5>v" ":239v"
"~W0<4>v" ":240v"
"~W0<3>v" ":241v"
"~W0<2>v" ":242v"
"~W0<1>v" ":243v"
"~W0<0>v" ":244v"
"~W1<31>v" ":245v"
"~W1<30>v" ":246v"
"~W1<29>v" ":247v"
"~W1<28>v" ":248v"
"~W1<27>v" ":249v"
"~W1<26>v" ":250v"
"~W1<25>v" ":251v"
"~W1<24>v" ":252v"
"~W1<23>v" ":253v"
"~W1<22>v" ":254v"
"~W1<21>v" ":255v"
"~W1<20>v" ":256v"
"~W1<19>v" ":257v"
"~W1<18>v" ":258v"
"~W1<17>v" ":259v"
"~W1<16>v" ":260v"
"~W1<15>v" ":261v"
"~W1<14>v" ":262v"
"~W1<13>v" ":263v"
"~W1<12>v" ":264v"
"~W1<11>v" ":265v"
"~W1<10>v" ":266v"
"~W1<9>v" ":267v"
"~W1<8>v" ":268v"
"~W1<7>v" ":269v"
"~W1<6>v" ":270v"
"~W1<5>v" ":271v"
"~W1<4>v" ":272v"
"~W1<3>v" ":273v"
"~W1<2>v" ":274v"
"~W1<1>v" ":275v"
"~W1<0>v" ":276v"
