HEADER
"PSFversion" "1.00"
"I3n I2n I1n I0n" "_sub90"
"JRiv" ":1v"
"JWiv" ":2v"
"~R0<3>v" ":3v"
"~R0<2>v" ":4v"
"~R0<1>v" ":5v"
"~R0<0>v" ":6v"
"~R1<3>v" ":7v"
"~R1<2>v" ":8v"
"~R1<1>v" ":9v"
"~R1<0>v" ":10v"
"~W0<3>v" ":11v"
"~W0<2>v" ":12v"
"~W0<1>v" ":13v"
"~W0<0>v" ":14v"
"~W1<3>v" ":15v"
"~W1<2>v" ":16v"
"~W1<1>v" ":17v"
"~W1<0>v" ":18v"
