HEADER
"PSFversion" "1.00"
"I2n I10n" "inv_4x_PWR"
"V2n V1n" "UCD_Analog_Parts_vdc_spectre"
"I34n I33n" "_sub9"
"M13n M12n M8n M7n M0n M1n" "NCSU_TechLib_FreePDK15_pfet_spectre"
"I5n I4n" "_sub10"
"ISplit<1>n ISplit<0>n ILinen IVDDLn IVDDHn" "basic_cds_thru_spectre"
"C0n" "UCD_Analog_Parts_cap_spectre"
"V0n" "UCD_Analog_Parts_vpulse_spectre"
"I1n" "inv_1x_PWR"
"I11n I48n" "nand4_1x_PWR"
"M11n M10n M9n M6n M5n M4n M2n M3n" "NCSU_TechLib_FreePDK15_nfet_spectre"
