HEADER
"PSFversion" "1.00"
"~R1v" "\\~R1 v"
"SM1<1>v" "SM1[1]v"
"SM1<0>v" "SM1[0]v"
"SM0<1>v" "SM0[1]v"
"SM0<0>v" "SM0[0]v"
"~R0v" "\\~R0 v"
"~R1v" "\\~R1 v"
"SM1<1>v" "SM1[1]v"
"SM1<0>v" "SM1[0]v"
"SM0<1>v" "SM0[1]v"
"SM0<0>v" "SM0[0]v"
"~R0v" "\\~R0 v"
