HEADER
"PSFversion" "1.00"
"M19n M18n M17n M16n M15n M14n M13n M12n M11n M10n" "NCSU_TechLib_FreePDK15_nfet_spectre"
"I6n" "inv_1x"
"M9n M8n M7n M6n M5n M4n M3n M2n M1n M0n" "NCSU_TechLib_FreePDK15_pfet_spectre"
"Av" "(FUNCTION or(mappedRoot(\".2@index\") mappedRoot(\".A\")))v"
"Av" ".Av"
"Av" ".\\2 v"
"Bv" "(FUNCTION or(mappedRoot(\".3@index\") mappedRoot(\".B\")))v"
"Bv" ".Bv"
"Bv" ".\\3 v"
"Cv" "(FUNCTION or(mappedRoot(\".4@index\") mappedRoot(\".C\")))v"
"Cv" ".Cv"
"Cv" ".\\4 v"
"Dv" "(FUNCTION or(mappedRoot(\".5@index\") mappedRoot(\".D\")))v"
"Dv" ".Dv"
"Dv" ".\\5 v"
"Yv" "(FUNCTION or(mappedRoot(\".1@index\") mappedRoot(\".Y\")))v"
"Yv" ".Yv"
"Yv" ".\\1 v"
