HEADER
"PSFversion" "1.00"
"I2n" "nand4_1x"
"I0n I1n I3n I4n" "nor4_1x"
"Yv" "(FUNCTION or(mappedRoot(\".1@index\") mappedRoot(\".Y\")))v"
"Yv" ".Yv"
"Yv" ".\\1 v"
"X<15>v" "(FUNCTION or(mappedRoot(\".2[15]@index\") mappedRoot(\".X[15]\")))v"
"X<15>v" ".X[15]v"
"X<15>v" ".\\2[15] v"
"X<14>v" "(FUNCTION or(mappedRoot(\".2[14]@index\") mappedRoot(\".X[14]\")))v"
"X<14>v" ".X[14]v"
"X<14>v" ".\\2[14] v"
"X<13>v" "(FUNCTION or(mappedRoot(\".2[13]@index\") mappedRoot(\".X[13]\")))v"
"X<13>v" ".X[13]v"
"X<13>v" ".\\2[13] v"
"X<12>v" "(FUNCTION or(mappedRoot(\".2[12]@index\") mappedRoot(\".X[12]\")))v"
"X<12>v" ".X[12]v"
"X<12>v" ".\\2[12] v"
"X<11>v" "(FUNCTION or(mappedRoot(\".2[11]@index\") mappedRoot(\".X[11]\")))v"
"X<11>v" ".X[11]v"
"X<11>v" ".\\2[11] v"
"X<10>v" "(FUNCTION or(mappedRoot(\".2[10]@index\") mappedRoot(\".X[10]\")))v"
"X<10>v" ".X[10]v"
"X<10>v" ".\\2[10] v"
"X<9>v" "(FUNCTION or(mappedRoot(\".2[9]@index\") mappedRoot(\".X[9]\")))v"
"X<9>v" ".X[9]v"
"X<9>v" ".\\2[9] v"
"X<8>v" "(FUNCTION or(mappedRoot(\".2[8]@index\") mappedRoot(\".X[8]\")))v"
"X<8>v" ".X[8]v"
"X<8>v" ".\\2[8] v"
"X<7>v" "(FUNCTION or(mappedRoot(\".2[7]@index\") mappedRoot(\".X[7]\")))v"
"X<7>v" ".X[7]v"
"X<7>v" ".\\2[7] v"
"X<6>v" "(FUNCTION or(mappedRoot(\".2[6]@index\") mappedRoot(\".X[6]\")))v"
"X<6>v" ".X[6]v"
"X<6>v" ".\\2[6] v"
"X<5>v" "(FUNCTION or(mappedRoot(\".2[5]@index\") mappedRoot(\".X[5]\")))v"
"X<5>v" ".X[5]v"
"X<5>v" ".\\2[5] v"
"X<4>v" "(FUNCTION or(mappedRoot(\".2[4]@index\") mappedRoot(\".X[4]\")))v"
"X<4>v" ".X[4]v"
"X<4>v" ".\\2[4] v"
"X<3>v" "(FUNCTION or(mappedRoot(\".2[3]@index\") mappedRoot(\".X[3]\")))v"
"X<3>v" ".X[3]v"
"X<3>v" ".\\2[3] v"
"X<2>v" "(FUNCTION or(mappedRoot(\".2[2]@index\") mappedRoot(\".X[2]\")))v"
"X<2>v" ".X[2]v"
"X<2>v" ".\\2[2] v"
"X<1>v" "(FUNCTION or(mappedRoot(\".2[1]@index\") mappedRoot(\".X[1]\")))v"
"X<1>v" ".X[1]v"
"X<1>v" ".\\2[1] v"
"X<0>v" "(FUNCTION or(mappedRoot(\".2[0]@index\") mappedRoot(\".X[0]\")))v"
"X<0>v" ".X[0]v"
"X<0>v" ".\\2[0] v"
