HEADER
"PSFversion" "1.00"
"net23v" "net23v"
"out<3>v" "out_3v"
"out<2>v" "out_2v"
"out<1>v" "out_1v"
"out<0>v" "out_0v"
"b<3>v" "b_3v"
"b<2>v" "b_2v"
"b<1>v" "b_1v"
"b<0>v" "b_0v"
"b_ackv" "b_ackv"
"net41v" "net41v"
"aselv" "aselv"
"bselv" "bselv"
"ackv" "ackv"
"net21v" "net21v"
"net22v" "net22v"
"net29v" "net29v"
"net27v" "net27v"
"net31v" "net31v"
"net24v" "net24v"
"net32v" "net32v"
"net42v" "net42v"
"net25v" "net25v"
"net26v" "net26v"
"a<3>v" "a_3v"
"a<2>v" "a_2v"
"a<1>v" "a_1v"
"net30v" "net30v"
"net28v" "net28v"
"a_ackv" "a_ackv"
"net40v" "net40v"
"net39v" "net39v"
"a<0>v" "a_0v"
