HEADER
"PSFversion" "1.00"
"B_Ack<3>v" "B_Ack_3v"
"B_Ack<2>v" "B_Ack_2v"
"B_Ack<1>v" "B_Ack_1v"
"B_Ack<0>v" "B_Ack_0v"
"B_Ack<7>v" "B_Ack_7v"
"B_Ack<6>v" "B_Ack_6v"
"B_Ack<5>v" "B_Ack_5v"
"B_Ack<4>v" "B_Ack_4v"
"B<11>v" "B_11v"
"B<10>v" "B_10v"
"B<9>v" "B_9v"
"B<8>v" "B_8v"
"B<15>v" "B_15v"
"B<14>v" "B_14v"
"B<13>v" "B_13v"
"B<12>v" "B_12v"
"D<11>v" "D_11v"
"D<10>v" "D_10v"
"D<9>v" "D_9v"
"D<8>v" "D_8v"
"D<15>v" "D_15v"
"D<14>v" "D_14v"
"D<13>v" "D_13v"
"D<12>v" "D_12v"
"D<7>v" "D_7v"
"D<6>v" "D_6v"
"D<5>v" "D_5v"
"D<4>v" "D_4v"
"D<3>v" "D_3v"
"D<2>v" "D_2v"
"D<1>v" "D_1v"
"D<0>v" "D_0v"
"D<31>v" "D_31v"
"D<30>v" "D_30v"
"D<29>v" "D_29v"
"D<28>v" "D_28v"
"Out4_1of4<3>v" "Out4_1of4_3v"
"Out4_1of4<2>v" "Out4_1of4_2v"
"Out4_1of4<1>v" "Out4_1of4_1v"
"Out4_1of4<0>v" "Out4_1of4_0v"
"C<31>v" "C_31v"
"C<30>v" "C_30v"
"C<29>v" "C_29v"
"C<28>v" "C_28v"
"C<27>v" "C_27v"
"C<26>v" "C_26v"
"C<25>v" "C_25v"
"C<24>v" "C_24v"
"C<23>v" "C_23v"
"C<22>v" "C_22v"
"C<21>v" "C_21v"
"C<20>v" "C_20v"
"C<19>v" "C_19v"
"C<18>v" "C_18v"
"C<17>v" "C_17v"
"C<16>v" "C_16v"
"C<15>v" "C_15v"
"C<14>v" "C_14v"
"C<13>v" "C_13v"
"C<12>v" "C_12v"
"C<11>v" "C_11v"
"C<10>v" "C_10v"
"C<9>v" "C_9v"
"C<8>v" "C_8v"
"C<7>v" "C_7v"
"C<6>v" "C_6v"
"C<5>v" "C_5v"
"C<4>v" "C_4v"
"C<3>v" "C_3v"
"C<2>v" "C_2v"
"C<1>v" "C_1v"
"C<0>v" "C_0v"
"D<27>v" "D_27v"
"D<26>v" "D_26v"
"D<25>v" "D_25v"
"D<24>v" "D_24v"
"Out8_1of4<3>v" "Out8_1of4_3v"
"Out8_1of4<2>v" "Out8_1of4_2v"
"Out8_1of4<1>v" "Out8_1of4_1v"
"Out8_1of4<0>v" "Out8_1of4_0v"
"D<23>v" "D_23v"
"D<22>v" "D_22v"
"D<21>v" "D_21v"
"D<20>v" "D_20v"
"D_Ack<3>v" "D_Ack_3v"
"D_Ack<2>v" "D_Ack_2v"
"D_Ack<1>v" "D_Ack_1v"
"D_Ack<0>v" "D_Ack_0v"
"D<19>v" "D_19v"
"D<18>v" "D_18v"
"D<17>v" "D_17v"
"D<16>v" "D_16v"
"A<23>v" "A_23v"
"A<22>v" "A_22v"
"A<21>v" "A_21v"
"A<20>v" "A_20v"
"B<7>v" "B_7v"
"B<6>v" "B_6v"
"B<5>v" "B_5v"
"B<4>v" "B_4v"
"A<31>v" "A_31v"
"A<30>v" "A_30v"
"A<29>v" "A_29v"
"A<28>v" "A_28v"
"A<27>v" "A_27v"
"A<26>v" "A_26v"
"A<25>v" "A_25v"
"A<24>v" "A_24v"
"A<19>v" "A_19v"
"A<18>v" "A_18v"
"A<17>v" "A_17v"
"A<16>v" "A_16v"
"A<15>v" "A_15v"
"A<14>v" "A_14v"
"A<13>v" "A_13v"
"A<12>v" "A_12v"
"A<11>v" "A_11v"
"A<10>v" "A_10v"
"A<9>v" "A_9v"
"A<8>v" "A_8v"
"A<7>v" "A_7v"
"A<6>v" "A_6v"
"A<5>v" "A_5v"
"A<4>v" "A_4v"
"A<3>v" "A_3v"
"A<2>v" "A_2v"
"A<1>v" "A_1v"
"A<0>v" "A_0v"
"Aselv" "Aselv"
"Ack<7>v" "Ack_7v"
"Ack<6>v" "Ack_6v"
"Ack<5>v" "Ack_5v"
"Ack<4>v" "Ack_4v"
"Ack<3>v" "Ack_3v"
"Ack<2>v" "Ack_2v"
"Ack<1>v" "Ack_1v"
"Ack<0>v" "Ack_0v"
"B<31>v" "B_31v"
"B<30>v" "B_30v"
"B<29>v" "B_29v"
"B<28>v" "B_28v"
"B<27>v" "B_27v"
"B<26>v" "B_26v"
"B<25>v" "B_25v"
"B<24>v" "B_24v"
"B<23>v" "B_23v"
"B<22>v" "B_22v"
"B<21>v" "B_21v"
"B<20>v" "B_20v"
"B<19>v" "B_19v"
"B<18>v" "B_18v"
"B<17>v" "B_17v"
"B<16>v" "B_16v"
"B<3>v" "B_3v"
"B<2>v" "B_2v"
"B<1>v" "B_1v"
"B<0>v" "B_0v"
"C_Ack<7>v" "C_Ack_7v"
"C_Ack<6>v" "C_Ack_6v"
"C_Ack<5>v" "C_Ack_5v"
"C_Ack<4>v" "C_Ack_4v"
"A_Ack<7>v" "A_Ack_7v"
"A_Ack<6>v" "A_Ack_6v"
"A_Ack<5>v" "A_Ack_5v"
"A_Ack<4>v" "A_Ack_4v"
"A_Ack<3>v" "A_Ack_3v"
"A_Ack<2>v" "A_Ack_2v"
"A_Ack<1>v" "A_Ack_1v"
"A_Ack<0>v" "A_Ack_0v"
"Out3_1of4<3>v" "Out3_1of4_3v"
"Out3_1of4<2>v" "Out3_1of4_2v"
"Out3_1of4<1>v" "Out3_1of4_1v"
"Out3_1of4<0>v" "Out3_1of4_0v"
"Bselv" "Bselv"
"Out5_1of4<3>v" "Out5_1of4_3v"
"Out5_1of4<2>v" "Out5_1of4_2v"
"Out5_1of4<1>v" "Out5_1of4_1v"
"Out5_1of4<0>v" "Out5_1of4_0v"
"D_Ack<7>v" "D_Ack_7v"
"D_Ack<6>v" "D_Ack_6v"
"D_Ack<5>v" "D_Ack_5v"
"D_Ack<4>v" "D_Ack_4v"
"Dselv" "Dselv"
"C_Ack<3>v" "C_Ack_3v"
"C_Ack<2>v" "C_Ack_2v"
"C_Ack<1>v" "C_Ack_1v"
"C_Ack<0>v" "C_Ack_0v"
"Cselv" "Cselv"
"Out1_1of4<3>v" "Out1_1of4_3v"
"Out1_1of4<2>v" "Out1_1of4_2v"
"Out1_1of4<1>v" "Out1_1of4_1v"
"Out1_1of4<0>v" "Out1_1of4_0v"
"Out7_1of4<3>v" "Out7_1of4_3v"
"Out7_1of4<2>v" "Out7_1of4_2v"
"Out7_1of4<1>v" "Out7_1of4_1v"
"Out7_1of4<0>v" "Out7_1of4_0v"
"Out6_1of4<3>v" "Out6_1of4_3v"
"Out6_1of4<2>v" "Out6_1of4_2v"
"Out6_1of4<1>v" "Out6_1of4_1v"
"Out6_1of4<0>v" "Out6_1of4_0v"
"Out2_1of4<3>v" "Out2_1of4_3v"
"Out2_1of4<2>v" "Out2_1of4_2v"
"Out2_1of4<1>v" "Out2_1of4_1v"
"Out2_1of4<0>v" "Out2_1of4_0v"
