HEADER
"PSFversion" "1.00"
"W1<31>v" "W1_31v"
"W1<30>v" "W1_30v"
"W1<29>v" "W1_29v"
"W1<28>v" "W1_28v"
"W1<27>v" "W1_27v"
"W1<26>v" "W1_26v"
"W1<25>v" "W1_25v"
"W1<24>v" "W1_24v"
"W1<23>v" "W1_23v"
"W1<22>v" "W1_22v"
"W1<21>v" "W1_21v"
"W1<20>v" "W1_20v"
"W1<19>v" "W1_19v"
"W1<18>v" "W1_18v"
"W1<17>v" "W1_17v"
"W1<16>v" "W1_16v"
"W1<15>v" "W1_15v"
"W1<14>v" "W1_14v"
"W1<13>v" "W1_13v"
"W1<12>v" "W1_12v"
"W1<11>v" "W1_11v"
"W1<10>v" "W1_10v"
"W1<9>v" "W1_9v"
"W1<8>v" "W1_8v"
"W1<7>v" "W1_7v"
"W1<6>v" "W1_6v"
"W1<5>v" "W1_5v"
"W1<4>v" "W1_4v"
"W1<3>v" "W1_3v"
"W1<2>v" "W1_2v"
"W1<1>v" "W1_1v"
"W1<0>v" "W1_0v"
"net0117<0>v" "net0117_0v"
"net0117<1>v" "net0117_1v"
"net0117<2>v" "net0117_2v"
"net0117<3>v" "net0117_3v"
"KWve<5>v" "KWve_5v"
"KRve<7>v" "KRve_7v"
"Wv<2>v" "Wv_2v"
"net0116<0>v" "net0116_0v"
"net0116<1>v" "net0116_1v"
"net0116<2>v" "net0116_2v"
"net0116<3>v" "net0116_3v"
"Wnand<25>v" "Wnand_25v"
"Rv<4>v" "Rv_4v"
"Wnand<26>v" "Wnand_26v"
"We<3>v" "We_3v"
"We<2>v" "We_2v"
"We<1>v" "We_1v"
"We<0>v" "We_0v"
"~KWe<1>v" "\\~KWe_1v"
"Rv<3>v" "Rv_3v"
"KRve<3>v" "KRve_3v"
"net088v" "net088v"
"Rnand<2>v" "Rnand_2v"
"net089v" "net089v"
"Rv<2>v" "Rv_2v"
"~KWe<3>v" "\\~KWe_3v"
"Rnand<9>v" "Rnand_9v"
"Rnand<4>v" "Rnand_4v"
"Rnand<5>v" "Rnand_5v"
"Rnand<6>v" "Rnand_6v"
"Rnand<7>v" "Rnand_7v"
"KRve<0>v" "KRve_0v"
"Rnand<8>v" "Rnand_8v"
"Rnand<10>v" "Rnand_10v"
"Rnand<11>v" "Rnand_11v"
"KRve<5>v" "KRve_5v"
"Rnand<15>v" "Rnand_15v"
"Rnand<16>v" "Rnand_16v"
"KWve<6>v" "KWve_6v"
"Rnand<12>v" "Rnand_12v"
"Rnand<17>v" "Rnand_17v"
"Wv<0>v" "Wv_0v"
"~KWe<4>v" "\\~KWe_4v"
"KWve<4>v" "KWve_4v"
"Rnand<13>v" "Rnand_13v"
"Rnand<14>v" "Rnand_14v"
"Rv<0>v" "Rv_0v"
"KWve<3>v" "KWve_3v"
"Rv<7>v" "Rv_7v"
"KRve<6>v" "KRve_6v"
"Rv<5>v" "Rv_5v"
"~KWe<0>v" "\\~KWe_0v"
"Rnand<21>v" "Rnand_21v"
"KWve<7>v" "KWve_7v"
"Rnand<22>v" "Rnand_22v"
"Rnand<23>v" "Rnand_23v"
"Rnand<24>v" "Rnand_24v"
"Rv<6>v" "Rv_6v"
"Rnand<18>v" "Rnand_18v"
"~KRe<3>v" "\\~KRe_3v"
"~KRe<2>v" "\\~KRe_2v"
"~KRe<1>v" "\\~KRe_1v"
"~KRe<0>v" "\\~KRe_0v"
"Rnand<0>v" "Rnand_0v"
"Rnand<25>v" "Rnand_25v"
"Rnand<19>v" "Rnand_19v"
"Rnand<20>v" "Rnand_20v"
"Rnand<1>v" "Rnand_1v"
"Rnand<3>v" "Rnand_3v"
"Rnand<26>v" "Rnand_26v"
"Rnand<27>v" "Rnand_27v"
"Rnand<28>v" "Rnand_28v"
"KWve<2>v" "KWve_2v"
"Rnand<29>v" "Rnand_29v"
"Rnand<30>v" "Rnand_30v"
"Rnand<31>v" "Rnand_31v"
"KWve<1>v" "KWve_1v"
"Wnand<0>v" "Wnand_0v"
"Wnand<1>v" "Wnand_1v"
"Wnand<2>v" "Wnand_2v"
"Wnand<3>v" "Wnand_3v"
"Wnand<4>v" "Wnand_4v"
"Wnand<5>v" "Wnand_5v"
"Wnand<6>v" "Wnand_6v"
"Wnand<7>v" "Wnand_7v"
"Wnand<8>v" "Wnand_8v"
"Wnand<9>v" "Wnand_9v"
"Wnand<10>v" "Wnand_10v"
"Wnand<11>v" "Wnand_11v"
"Wnand<12>v" "Wnand_12v"
"Wnand<13>v" "Wnand_13v"
"Wnand<14>v" "Wnand_14v"
"Wnand<15>v" "Wnand_15v"
"Wnand<16>v" "Wnand_16v"
"Wnand<17>v" "Wnand_17v"
"Wnand<18>v" "Wnand_18v"
"Wnand<19>v" "Wnand_19v"
"Wnand<20>v" "Wnand_20v"
"Wnand<21>v" "Wnand_21v"
"Wnand<22>v" "Wnand_22v"
"Wnand<23>v" "Wnand_23v"
"Wnand<24>v" "Wnand_24v"
"R0<31>v" "R0_31v"
"R0<30>v" "R0_30v"
"R0<29>v" "R0_29v"
"R0<28>v" "R0_28v"
"R0<27>v" "R0_27v"
"R0<26>v" "R0_26v"
"R0<25>v" "R0_25v"
"R0<24>v" "R0_24v"
"R0<23>v" "R0_23v"
"R0<22>v" "R0_22v"
"R0<21>v" "R0_21v"
"R0<20>v" "R0_20v"
"R0<19>v" "R0_19v"
"R0<18>v" "R0_18v"
"R0<17>v" "R0_17v"
"R0<16>v" "R0_16v"
"R0<15>v" "R0_15v"
"R0<14>v" "R0_14v"
"R0<13>v" "R0_13v"
"R0<12>v" "R0_12v"
"R0<11>v" "R0_11v"
"R0<10>v" "R0_10v"
"R0<9>v" "R0_9v"
"R0<8>v" "R0_8v"
"R0<7>v" "R0_7v"
"R0<6>v" "R0_6v"
"R0<5>v" "R0_5v"
"R0<4>v" "R0_4v"
"R0<3>v" "R0_3v"
"R0<2>v" "R0_2v"
"R0<1>v" "R0_1v"
"R0<0>v" "R0_0v"
"Wnand<27>v" "Wnand_27v"
"Wnand<28>v" "Wnand_28v"
"Wnand<29>v" "Wnand_29v"
"Wnand<30>v" "Wnand_30v"
"Wnand<31>v" "Wnand_31v"
"KWvv" "KWvv"
"KRvv" "KRvv"
"~KWe<7>v" "\\~KWe_7v"
"~KWe<6>v" "\\~KWe_6v"
"~KWe<5>v" "\\~KWe_5v"
"~KWe<2>v" "\\~KWe_2v"
"Wv<3>v" "Wv_3v"
"~KRe<7>v" "\\~KRe_7v"
"~KRe<6>v" "\\~KRe_6v"
"~KRe<5>v" "\\~KRe_5v"
"~KRe<4>v" "\\~KRe_4v"
"W0<31>v" "W0_31v"
"W0<30>v" "W0_30v"
"W0<29>v" "W0_29v"
"W0<28>v" "W0_28v"
"W0<27>v" "W0_27v"
"W0<26>v" "W0_26v"
"W0<25>v" "W0_25v"
"W0<24>v" "W0_24v"
"W0<23>v" "W0_23v"
"W0<22>v" "W0_22v"
"W0<21>v" "W0_21v"
"W0<20>v" "W0_20v"
"W0<19>v" "W0_19v"
"W0<18>v" "W0_18v"
"W0<17>v" "W0_17v"
"W0<16>v" "W0_16v"
"W0<15>v" "W0_15v"
"W0<14>v" "W0_14v"
"W0<13>v" "W0_13v"
"W0<12>v" "W0_12v"
"W0<11>v" "W0_11v"
"W0<10>v" "W0_10v"
"W0<9>v" "W0_9v"
"W0<8>v" "W0_8v"
"W0<7>v" "W0_7v"
"W0<6>v" "W0_6v"
"W0<5>v" "W0_5v"
"W0<4>v" "W0_4v"
"W0<3>v" "W0_3v"
"W0<2>v" "W0_2v"
"W0<1>v" "W0_1v"
"W0<0>v" "W0_0v"
"We<7>v" "We_7v"
"We<6>v" "We_6v"
"We<5>v" "We_5v"
"We<4>v" "We_4v"
"Re2<3>v" "Re2_3v"
"Re2<2>v" "Re2_2v"
"Re2<1>v" "Re2_1v"
"Re2<0>v" "Re2_0v"
"Re2<7>v" "Re2_7v"
"Re2<6>v" "Re2_6v"
"Re2<5>v" "Re2_5v"
"Re2<4>v" "Re2_4v"
"KWev" "KWev"
"KRev" "KRev"
"~R1<31>v" "\\~R1_31v"
"~R1<30>v" "\\~R1_30v"
"~R1<29>v" "\\~R1_29v"
"~R1<28>v" "\\~R1_28v"
"~R1<27>v" "\\~R1_27v"
"~R1<26>v" "\\~R1_26v"
"~R1<25>v" "\\~R1_25v"
"~R1<24>v" "\\~R1_24v"
"~R1<23>v" "\\~R1_23v"
"~R1<22>v" "\\~R1_22v"
"~R1<21>v" "\\~R1_21v"
"~R1<20>v" "\\~R1_20v"
"~R1<19>v" "\\~R1_19v"
"~R1<18>v" "\\~R1_18v"
"~R1<17>v" "\\~R1_17v"
"~R1<16>v" "\\~R1_16v"
"~R1<15>v" "\\~R1_15v"
"~R1<14>v" "\\~R1_14v"
"~R1<13>v" "\\~R1_13v"
"~R1<12>v" "\\~R1_12v"
"~R1<11>v" "\\~R1_11v"
"~R1<10>v" "\\~R1_10v"
"~R1<9>v" "\\~R1_9v"
"~R1<8>v" "\\~R1_8v"
"~R1<7>v" "\\~R1_7v"
"~R1<6>v" "\\~R1_6v"
"~R1<5>v" "\\~R1_5v"
"~R1<4>v" "\\~R1_4v"
"~R1<3>v" "\\~R1_3v"
"~R1<2>v" "\\~R1_2v"
"~R1<1>v" "\\~R1_1v"
"~R1<0>v" "\\~R1_0v"
"~W1<31>v" "\\~W1_31v"
"~W1<30>v" "\\~W1_30v"
"~W1<29>v" "\\~W1_29v"
"~W1<28>v" "\\~W1_28v"
"~W1<27>v" "\\~W1_27v"
"~W1<26>v" "\\~W1_26v"
"~W1<25>v" "\\~W1_25v"
"~W1<24>v" "\\~W1_24v"
"~W1<23>v" "\\~W1_23v"
"~W1<22>v" "\\~W1_22v"
"~W1<21>v" "\\~W1_21v"
"~W1<20>v" "\\~W1_20v"
"~W1<19>v" "\\~W1_19v"
"~W1<18>v" "\\~W1_18v"
"~W1<17>v" "\\~W1_17v"
"~W1<16>v" "\\~W1_16v"
"~W1<15>v" "\\~W1_15v"
"~W1<14>v" "\\~W1_14v"
"~W1<13>v" "\\~W1_13v"
"~W1<12>v" "\\~W1_12v"
"~W1<11>v" "\\~W1_11v"
"~W1<10>v" "\\~W1_10v"
"~W1<9>v" "\\~W1_9v"
"~W1<8>v" "\\~W1_8v"
"~W1<7>v" "\\~W1_7v"
"~W1<6>v" "\\~W1_6v"
"~W1<5>v" "\\~W1_5v"
"~W1<4>v" "\\~W1_4v"
"~W1<3>v" "\\~W1_3v"
"~W1<2>v" "\\~W1_2v"
"~W1<1>v" "\\~W1_1v"
"~W1<0>v" "\\~W1_0v"
"KWve<0>v" "KWve_0v"
"Wv<6>v" "Wv_6v"
"net0118<0>v" "net0118_0v"
"net0118<1>v" "net0118_1v"
"net0118<2>v" "net0118_2v"
"net0118<3>v" "net0118_3v"
"Wv<7>v" "Wv_7v"
"Rv<1>v" "Rv_1v"
"KRve<4>v" "KRve_4v"
"Wv<1>v" "Wv_1v"
"KRve<2>v" "KRve_2v"
"KRve<1>v" "KRve_1v"
"net0115<0>v" "net0115_0v"
"net0115<1>v" "net0115_1v"
"net0115<2>v" "net0115_2v"
"net0115<3>v" "net0115_3v"
"net090v" "net090v"
"Wv<4>v" "Wv_4v"
"net087v" "net087v"
"Wv<5>v" "Wv_5v"
"R1<31>v" "R1_31v"
"R1<30>v" "R1_30v"
"R1<29>v" "R1_29v"
"R1<28>v" "R1_28v"
"R1<27>v" "R1_27v"
"R1<26>v" "R1_26v"
"R1<25>v" "R1_25v"
"R1<24>v" "R1_24v"
"R1<23>v" "R1_23v"
"R1<22>v" "R1_22v"
"R1<21>v" "R1_21v"
"R1<20>v" "R1_20v"
"R1<19>v" "R1_19v"
"R1<18>v" "R1_18v"
"R1<17>v" "R1_17v"
"R1<16>v" "R1_16v"
"R1<15>v" "R1_15v"
"R1<14>v" "R1_14v"
"R1<13>v" "R1_13v"
"R1<12>v" "R1_12v"
"R1<11>v" "R1_11v"
"R1<10>v" "R1_10v"
"R1<9>v" "R1_9v"
"R1<8>v" "R1_8v"
"R1<7>v" "R1_7v"
"R1<6>v" "R1_6v"
"R1<5>v" "R1_5v"
"R1<4>v" "R1_4v"
"R1<3>v" "R1_3v"
"R1<2>v" "R1_2v"
"R1<1>v" "R1_1v"
"R1<0>v" "R1_0v"
"~W0<31>v" "\\~W0_31v"
"~W0<30>v" "\\~W0_30v"
"~W0<29>v" "\\~W0_29v"
"~W0<28>v" "\\~W0_28v"
"~W0<27>v" "\\~W0_27v"
"~W0<26>v" "\\~W0_26v"
"~W0<25>v" "\\~W0_25v"
"~W0<24>v" "\\~W0_24v"
"~W0<23>v" "\\~W0_23v"
"~W0<22>v" "\\~W0_22v"
"~W0<21>v" "\\~W0_21v"
"~W0<20>v" "\\~W0_20v"
"~W0<19>v" "\\~W0_19v"
"~W0<18>v" "\\~W0_18v"
"~W0<17>v" "\\~W0_17v"
"~W0<16>v" "\\~W0_16v"
"~W0<15>v" "\\~W0_15v"
"~W0<14>v" "\\~W0_14v"
"~W0<13>v" "\\~W0_13v"
"~W0<12>v" "\\~W0_12v"
"~W0<11>v" "\\~W0_11v"
"~W0<10>v" "\\~W0_10v"
"~W0<9>v" "\\~W0_9v"
"~W0<8>v" "\\~W0_8v"
"~W0<7>v" "\\~W0_7v"
"~W0<6>v" "\\~W0_6v"
"~W0<5>v" "\\~W0_5v"
"~W0<4>v" "\\~W0_4v"
"~W0<3>v" "\\~W0_3v"
"~W0<2>v" "\\~W0_2v"
"~W0<1>v" "\\~W0_1v"
"~W0<0>v" "\\~W0_0v"
"~R0<31>v" "\\~R0_31v"
"~R0<30>v" "\\~R0_30v"
"~R0<29>v" "\\~R0_29v"
"~R0<28>v" "\\~R0_28v"
"~R0<27>v" "\\~R0_27v"
"~R0<26>v" "\\~R0_26v"
"~R0<25>v" "\\~R0_25v"
"~R0<24>v" "\\~R0_24v"
"~R0<23>v" "\\~R0_23v"
"~R0<22>v" "\\~R0_22v"
"~R0<21>v" "\\~R0_21v"
"~R0<20>v" "\\~R0_20v"
"~R0<19>v" "\\~R0_19v"
"~R0<18>v" "\\~R0_18v"
"~R0<17>v" "\\~R0_17v"
"~R0<16>v" "\\~R0_16v"
"~R0<15>v" "\\~R0_15v"
"~R0<14>v" "\\~R0_14v"
"~R0<13>v" "\\~R0_13v"
"~R0<12>v" "\\~R0_12v"
"~R0<11>v" "\\~R0_11v"
"~R0<10>v" "\\~R0_10v"
"~R0<9>v" "\\~R0_9v"
"~R0<8>v" "\\~R0_8v"
"~R0<7>v" "\\~R0_7v"
"~R0<6>v" "\\~R0_6v"
"~R0<5>v" "\\~R0_5v"
"~R0<4>v" "\\~R0_4v"
"~R0<3>v" "\\~R0_3v"
"~R0<2>v" "\\~R0_2v"
"~R0<1>v" "\\~R0_1v"
"~R0<0>v" "\\~R0_0v"
