HEADER
"PSFversion" "1.00"
"c<0>v" "c_0v"
"d<0>v" "d_0v"
"b<1>v" "b_1v"
"d<3>v" "d_3v"
"d<2>v" "d_2v"
"d<1>v" "d_1v"
"b<2>v" "b_2v"
"d_ackv" "d_ackv"
"net67v" "net67v"
"c<3>v" "c_3v"
"c<2>v" "c_2v"
"c<1>v" "c_1v"
"cselv" "cselv"
"b<3>v" "b_3v"
"b<0>v" "b_0v"
"in<3>v" "in_3v"
"in<2>v" "in_2v"
"in<1>v" "in_1v"
"in<0>v" "in_0v"
"c_ackv" "c_ackv"
"net66v" "net66v"
"a<3>v" "a_3v"
"a<2>v" "a_2v"
"a<1>v" "a_1v"
"a<0>v" "a_0v"
"a_ackv" "a_ackv"
"net69v" "net69v"
"net68v" "net68v"
"ackv" "ackv"
"aselv" "aselv"
"b_ackv" "b_ackv"
"bselv" "bselv"
"dselv" "dselv"
