HEADER
"PSFversion" "1.00"
"I8n" "inv_1x"
"I7n" "nand_1x"
"Av" ":1v"
"Bv" ":2v"
"Yv" ":3v"
