HEADER
"PSFversion" "1.00"
"Cv" "Cv"
"Av" "Av"
"Bv" "Bv"
"net1v" "net1v"
"Yv" "Yv"
