HEADER
"PSFversion" "1.00"
"TagWEv" "TagWEv"
"WriteToL1MissTagAckv" "WriteToL1MissTagAckv"
"TagWDataSelv" "TagWDataSelv"
"L2DataOutTagAckv" "L2DataOutTagAckv"
"TagWrRegReqv" "TagWrRegReqv"
"WriteToL1MissReqv" "WriteToL1MissReqv"
"TagWrRegAckv" "TagWrRegAckv"
"L2DataOutReqv" "L2DataOutReqv"
"TagWAckv" "TagWAckv"
