HEADER
"PSFversion" "1.00"
"net088<0>v" "net088_0v"
"net088<1>v" "net088_1v"
"net088<2>v" "net088_2v"
"net088<3>v" "net088_3v"
"net088<4>v" "net088_4v"
"net088<5>v" "net088_5v"
"net088<6>v" "net088_6v"
"net088<7>v" "net088_7v"
"net088<8>v" "net088_8v"
"net088<9>v" "net088_9v"
"net088<10>v" "net088_10v"
"net088<11>v" "net088_11v"
"net088<12>v" "net088_12v"
"net088<13>v" "net088_13v"
"net088<14>v" "net088_14v"
"net088<15>v" "net088_15v"
"net088<16>v" "net088_16v"
"net088<17>v" "net088_17v"
"net088<18>v" "net088_18v"
"net088<19>v" "net088_19v"
"net088<20>v" "net088_20v"
"net088<21>v" "net088_21v"
"net062v" "net062v"
"net044<0>v" "net044_0v"
"net044<1>v" "net044_1v"
"net044<2>v" "net044_2v"
"net044<3>v" "net044_3v"
"net044<4>v" "net044_4v"
"net044<5>v" "net044_5v"
"net044<6>v" "net044_6v"
"net069v" "net069v"
"net035<0>v" "net035_0v"
"net035<1>v" "net035_1v"
"net035<2>v" "net035_2v"
"net035<3>v" "net035_3v"
"net035<4>v" "net035_4v"
"net035<5>v" "net035_5v"
"net035<6>v" "net035_6v"
"ReadEnablev" "ReadEnablev"
"net045<0>v" "net045_0v"
"net045<1>v" "net045_1v"
"net045<2>v" "net045_2v"
"net045<3>v" "net045_3v"
"net045<4>v" "net045_4v"
"net045<5>v" "net045_5v"
"net045<6>v" "net045_6v"
"net084<0>v" "net084_0v"
"net084<1>v" "net084_1v"
"net084<2>v" "net084_2v"
"net084<3>v" "net084_3v"
"net084<4>v" "net084_4v"
"net084<5>v" "net084_5v"
"net084<6>v" "net084_6v"
"net084<7>v" "net084_7v"
"net084<8>v" "net084_8v"
"net084<9>v" "net084_9v"
"net084<10>v" "net084_10v"
"net084<11>v" "net084_11v"
"net084<12>v" "net084_12v"
"net084<13>v" "net084_13v"
"net084<14>v" "net084_14v"
"net084<15>v" "net084_15v"
"net070v" "net070v"
"net059v" "net059v"
"~RW<1>v" "\\~RW_1v"
"~RW<0>v" "\\~RW_0v"
"net0102v" "net0102v"
"TagReadeAckv" "TagReadeAckv"
"WriteEnablev" "WriteEnablev"
"net087<0>v" "net087_0v"
"net087<1>v" "net087_1v"
"net087<2>v" "net087_2v"
"net087<3>v" "net087_3v"
"net087<4>v" "net087_4v"
"net087<5>v" "net087_5v"
"net087<6>v" "net087_6v"
"net087<7>v" "net087_7v"
"net087<8>v" "net087_8v"
"net087<9>v" "net087_9v"
"net087<10>v" "net087_10v"
"net087<11>v" "net087_11v"
"net093v" "net093v"
"WDataT<15>v" "WDataT_15v"
"WDataT<14>v" "WDataT_14v"
"WDataT<13>v" "WDataT_13v"
"WDataT<12>v" "WDataT_12v"
"WDataT<11>v" "WDataT_11v"
"WDataT<10>v" "WDataT_10v"
"WDataT<9>v" "WDataT_9v"
"WDataT<8>v" "WDataT_8v"
"WDataT<7>v" "WDataT_7v"
"WDataT<6>v" "WDataT_6v"
"WDataT<5>v" "WDataT_5v"
"WDataT<4>v" "WDataT_4v"
"WDataT<3>v" "WDataT_3v"
"WDataT<2>v" "WDataT_2v"
"WDataT<1>v" "WDataT_1v"
"WDataT<0>v" "WDataT_0v"
"R1<31>v" "R1_31v"
"net075v" "net075v"
"net058v" "net058v"
"R0<31>v" "R0_31v"
"R0<30>v" "R0_30v"
"R0<29>v" "R0_29v"
"R0<28>v" "R0_28v"
"R0<27>v" "R0_27v"
"R0<26>v" "R0_26v"
"R0<25>v" "R0_25v"
"R0<24>v" "R0_24v"
"R0<23>v" "R0_23v"
"R0<22>v" "R0_22v"
"R0<21>v" "R0_21v"
"R0<20>v" "R0_20v"
"R0<19>v" "R0_19v"
"R0<18>v" "R0_18v"
"R0<17>v" "R0_17v"
"R0<16>v" "R0_16v"
"R0<15>v" "R0_15v"
"R0<14>v" "R0_14v"
"R0<13>v" "R0_13v"
"R0<12>v" "R0_12v"
"R0<11>v" "R0_11v"
"R0<10>v" "R0_10v"
"R0<9>v" "R0_9v"
"R0<8>v" "R0_8v"
"R0<7>v" "R0_7v"
"R0<6>v" "R0_6v"
"R0<5>v" "R0_5v"
"R0<4>v" "R0_4v"
"R0<3>v" "R0_3v"
"R0<2>v" "R0_2v"
"R0<1>v" "R0_1v"
"R0<0>v" "R0_0v"
"net053<0>v" "net053_0v"
"net053<1>v" "net053_1v"
"net053<2>v" "net053_2v"
"net053<3>v" "net053_3v"
"net053<4>v" "net053_4v"
"net053<5>v" "net053_5v"
"net053<6>v" "net053_6v"
"net053<7>v" "net053_7v"
"net053<8>v" "net053_8v"
"net053<9>v" "net053_9v"
"net053<10>v" "net053_10v"
"net053<11>v" "net053_11v"
"net053<12>v" "net053_12v"
"net053<13>v" "net053_13v"
"net053<14>v" "net053_14v"
"net053<15>v" "net053_15v"
"net053<16>v" "net053_16v"
"net053<17>v" "net053_17v"
"net053<18>v" "net053_18v"
"net053<19>v" "net053_19v"
"net053<20>v" "net053_20v"
"net053<21>v" "net053_21v"
"net053<22>v" "net053_22v"
"net053<23>v" "net053_23v"
"net053<24>v" "net053_24v"
"net053<25>v" "net053_25v"
"net053<26>v" "net053_26v"
"net053<27>v" "net053_27v"
"net053<28>v" "net053_28v"
"net053<29>v" "net053_29v"
"net053<30>v" "net053_30v"
"net053<31>v" "net053_31v"
"net097v" "net097v"
"net090v" "net090v"
"MissInvalidv" "MissInvalidv"
"net091v" "net091v"
"net079v" "net079v"
"net016v" "net016v"
"net076v" "net076v"
"net0128<0>v" "net0128_0v"
"net0128<1>v" "net0128_1v"
"net0128<2>v" "net0128_2v"
"net0128<3>v" "net0128_3v"
"net0128<4>v" "net0128_4v"
"net0128<5>v" "net0128_5v"
"net0128<6>v" "net0128_6v"
"net0128<7>v" "net0128_7v"
"net0128<8>v" "net0128_8v"
"net0128<9>v" "net0128_9v"
"net0128<10>v" "net0128_10v"
"net0128<11>v" "net0128_11v"
"net0114v" "net0114v"
"net051<0>v" "net051_0v"
"net051<1>v" "net051_1v"
"net051<2>v" "net051_2v"
"net051<3>v" "net051_3v"
"net051<4>v" "net051_4v"
"net051<5>v" "net051_5v"
"net051<6>v" "net051_6v"
"net051<7>v" "net051_7v"
"net051<8>v" "net051_8v"
"net051<9>v" "net051_9v"
"net051<10>v" "net051_10v"
"net051<11>v" "net051_11v"
"net051<12>v" "net051_12v"
"net051<13>v" "net051_13v"
"net051<14>v" "net051_14v"
"net051<15>v" "net051_15v"
"net051<16>v" "net051_16v"
"net051<17>v" "net051_17v"
"net051<18>v" "net051_18v"
"net051<19>v" "net051_19v"
"net051<20>v" "net051_20v"
"net051<21>v" "net051_21v"
"net051<22>v" "net051_22v"
"net051<23>v" "net051_23v"
"net051<24>v" "net051_24v"
"net051<25>v" "net051_25v"
"net051<26>v" "net051_26v"
"net051<27>v" "net051_27v"
"net051<28>v" "net051_28v"
"net051<29>v" "net051_29v"
"net051<30>v" "net051_30v"
"net051<31>v" "net051_31v"
"net0106<0>v" "net0106_0v"
"net0106<1>v" "net0106_1v"
"net0106<2>v" "net0106_2v"
"net0106<3>v" "net0106_3v"
"net0106<4>v" "net0106_4v"
"net0106<5>v" "net0106_5v"
"net0106<6>v" "net0106_6v"
"net0106<7>v" "net0106_7v"
"net071v" "net071v"
"net049<0>v" "net049_0v"
"net049<1>v" "net049_1v"
"net049<2>v" "net049_2v"
"net049<3>v" "net049_3v"
"net049<4>v" "net049_4v"
"net049<5>v" "net049_5v"
"net049<6>v" "net049_6v"
"net049<7>v" "net049_7v"
"net049<8>v" "net049_8v"
"net049<9>v" "net049_9v"
"net049<10>v" "net049_10v"
"net049<11>v" "net049_11v"
"net049<12>v" "net049_12v"
"net049<13>v" "net049_13v"
"net049<14>v" "net049_14v"
"net049<15>v" "net049_15v"
"net049<16>v" "net049_16v"
"net049<17>v" "net049_17v"
"net049<18>v" "net049_18v"
"net049<19>v" "net049_19v"
"net049<20>v" "net049_20v"
"net049<21>v" "net049_21v"
"net049<22>v" "net049_22v"
"net049<23>v" "net049_23v"
"net049<24>v" "net049_24v"
"net049<25>v" "net049_25v"
"net049<26>v" "net049_26v"
"net049<27>v" "net049_27v"
"net049<28>v" "net049_28v"
"net049<29>v" "net049_29v"
"net049<30>v" "net049_30v"
"net049<31>v" "net049_31v"
"R1<30>v" "R1_30v"
"R1<29>v" "R1_29v"
"R1<28>v" "R1_28v"
"R1<27>v" "R1_27v"
"R1<26>v" "R1_26v"
"R1<25>v" "R1_25v"
"R1<24>v" "R1_24v"
"R1<23>v" "R1_23v"
"R1<22>v" "R1_22v"
"R1<21>v" "R1_21v"
"R1<20>v" "R1_20v"
"R1<19>v" "R1_19v"
"R1<18>v" "R1_18v"
"R1<17>v" "R1_17v"
"R1<16>v" "R1_16v"
"R1<15>v" "R1_15v"
"R1<14>v" "R1_14v"
"R1<13>v" "R1_13v"
"R1<12>v" "R1_12v"
"R1<11>v" "R1_11v"
"R1<10>v" "R1_10v"
"R1<9>v" "R1_9v"
"R1<8>v" "R1_8v"
"R1<7>v" "R1_7v"
"R1<6>v" "R1_6v"
"R1<5>v" "R1_5v"
"R1<4>v" "R1_4v"
"R1<3>v" "R1_3v"
"R1<2>v" "R1_2v"
"R1<1>v" "R1_1v"
"R1<0>v" "R1_0v"
"net0127<0>v" "net0127_0v"
"net0127<1>v" "net0127_1v"
"net0127<2>v" "net0127_2v"
"net0127<3>v" "net0127_3v"
"net0127<4>v" "net0127_4v"
"net0127<5>v" "net0127_5v"
"net0127<6>v" "net0127_6v"
"net0127<7>v" "net0127_7v"
"net0127<8>v" "net0127_8v"
"net0127<9>v" "net0127_9v"
"net0127<10>v" "net0127_10v"
"net0127<11>v" "net0127_11v"
"net0105v" "net0105v"
"Missv" "Missv"
"net048<0>v" "net048_0v"
"net048<1>v" "net048_1v"
"net048<2>v" "net048_2v"
"net048<3>v" "net048_3v"
"net048<4>v" "net048_4v"
"net048<5>v" "net048_5v"
"net048<6>v" "net048_6v"
"net048<7>v" "net048_7v"
"net048<8>v" "net048_8v"
"net048<9>v" "net048_9v"
"net048<10>v" "net048_10v"
"net048<11>v" "net048_11v"
"net048<12>v" "net048_12v"
"net048<13>v" "net048_13v"
"net048<14>v" "net048_14v"
"net048<15>v" "net048_15v"
"net048<16>v" "net048_16v"
"net048<17>v" "net048_17v"
"net048<18>v" "net048_18v"
"net048<19>v" "net048_19v"
"net048<20>v" "net048_20v"
"net048<21>v" "net048_21v"
"net048<22>v" "net048_22v"
"net048<23>v" "net048_23v"
"net048<24>v" "net048_24v"
"net048<25>v" "net048_25v"
"net048<26>v" "net048_26v"
"net048<27>v" "net048_27v"
"net048<28>v" "net048_28v"
"net048<29>v" "net048_29v"
"net048<30>v" "net048_30v"
"net048<31>v" "net048_31v"
"net073v" "net073v"
"net0124<0>v" "net0124_0v"
"net0124<1>v" "net0124_1v"
"net0124<2>v" "net0124_2v"
"net0124<3>v" "net0124_3v"
"net0124<4>v" "net0124_4v"
"net0124<5>v" "net0124_5v"
"net0124<6>v" "net0124_6v"
"net0124<7>v" "net0124_7v"
"net0124<8>v" "net0124_8v"
"net0124<9>v" "net0124_9v"
"net0124<10>v" "net0124_10v"
"net0124<11>v" "net0124_11v"
"CPUT<32>v" "CPUT_32v"
"CPUT<31>v" "CPUT_31v"
"CPUT<30>v" "CPUT_30v"
"CPUT<29>v" "CPUT_29v"
"CPUT<28>v" "CPUT_28v"
"CPUT<27>v" "CPUT_27v"
"CPUT<26>v" "CPUT_26v"
"CPUT<25>v" "CPUT_25v"
"CPUT<24>v" "CPUT_24v"
"CPUT<23>v" "CPUT_23v"
"CPUT<22>v" "CPUT_22v"
"CPUT<21>v" "CPUT_21v"
"CPUT<20>v" "CPUT_20v"
"CPUT<19>v" "CPUT_19v"
"CPUT<18>v" "CPUT_18v"
"CPUT<17>v" "CPUT_17v"
"CPUT<16>v" "CPUT_16v"
"CPUT<15>v" "CPUT_15v"
"CPUT<14>v" "CPUT_14v"
"CPUT<13>v" "CPUT_13v"
"CPUT<12>v" "CPUT_12v"
"CPUT<11>v" "CPUT_11v"
"net056v" "net056v"
"net0122v" "net0122v"
"net055<0>v" "net055_0v"
"net055<1>v" "net055_1v"
"net055<2>v" "net055_2v"
"net055<3>v" "net055_3v"
"net055<4>v" "net055_4v"
"net055<5>v" "net055_5v"
"net055<6>v" "net055_6v"
"net055<7>v" "net055_7v"
"net055<8>v" "net055_8v"
"net055<9>v" "net055_9v"
"net055<10>v" "net055_10v"
"net055<11>v" "net055_11v"
"net055<12>v" "net055_12v"
"net055<13>v" "net055_13v"
"net055<14>v" "net055_14v"
"net055<15>v" "net055_15v"
"net055<16>v" "net055_16v"
"net055<17>v" "net055_17v"
"net055<18>v" "net055_18v"
"net055<19>v" "net055_19v"
"net055<20>v" "net055_20v"
"net055<21>v" "net055_21v"
"net055<22>v" "net055_22v"
"net055<23>v" "net055_23v"
"net055<24>v" "net055_24v"
"net055<25>v" "net055_25v"
"net055<26>v" "net055_26v"
"net055<27>v" "net055_27v"
"net055<28>v" "net055_28v"
"net055<29>v" "net055_29v"
"net055<30>v" "net055_30v"
"net055<31>v" "net055_31v"
"net095v" "net095v"
"net057v" "net057v"
"net0133v" "net0133v"
"TagRAckv" "TagRAckv"
"net019v" "net019v"
"net0123<0>v" "net0123_0v"
"net0123<1>v" "net0123_1v"
"net0123<2>v" "net0123_2v"
"net0123<3>v" "net0123_3v"
"net0123<4>v" "net0123_4v"
"net0123<5>v" "net0123_5v"
"net0123<6>v" "net0123_6v"
"net0123<7>v" "net0123_7v"
"net0123<8>v" "net0123_8v"
"net0123<9>v" "net0123_9v"
"net0123<10>v" "net0123_10v"
"net0123<11>v" "net0123_11v"
"net0109v" "net0109v"
"net089v" "net089v"
"CPUT<10>v" "CPUT_10v"
"CPUT<9>v" "CPUT_9v"
"CPUT<8>v" "CPUT_8v"
"CPUT<7>v" "CPUT_7v"
"CPUT<6>v" "CPUT_6v"
"CPUT<5>v" "CPUT_5v"
"CPUT<4>v" "CPUT_4v"
"net068v" "net068v"
"RWT<0>v" "RWT_0v"
"net0125v" "net0125v"
"net0104<0>v" "net0104_0v"
"net0104<1>v" "net0104_1v"
"net0104<2>v" "net0104_2v"
"net0104<3>v" "net0104_3v"
"net0104<4>v" "net0104_4v"
"net0104<5>v" "net0104_5v"
"net0104<6>v" "net0104_6v"
"net0104<7>v" "net0104_7v"
"net0104<8>v" "net0104_8v"
"net0104<9>v" "net0104_9v"
"net0104<10>v" "net0104_10v"
"net0104<11>v" "net0104_11v"
"net092v" "net092v"
"net036v" "net036v"
"net050v" "net050v"
"OutFIFOReqv" "OutFIFOReqv"
"net072v" "net072v"
"net082v" "net082v"
"CPUT<3>v" "CPUT_3v"
"CPUT<2>v" "CPUT_2v"
"CPUT<1>v" "CPUT_1v"
"CPUT<0>v" "CPUT_0v"
"net074v" "net074v"
"net065<0>v" "net065_0v"
"net065<1>v" "net065_1v"
"net065<2>v" "net065_2v"
"net065<3>v" "net065_3v"
"net065<4>v" "net065_4v"
"net065<5>v" "net065_5v"
"net065<6>v" "net065_6v"
"net065<7>v" "net065_7v"
"net065<8>v" "net065_8v"
"net065<9>v" "net065_9v"
"net065<10>v" "net065_10v"
"net065<11>v" "net065_11v"
"net065<12>v" "net065_12v"
"net065<13>v" "net065_13v"
"net065<14>v" "net065_14v"
"net065<15>v" "net065_15v"
"net065<16>v" "net065_16v"
"net065<17>v" "net065_17v"
"net065<18>v" "net065_18v"
"net065<19>v" "net065_19v"
"net065<20>v" "net065_20v"
"net065<21>v" "net065_21v"
"CAckv" "CAckv"
"Hitv" "Hitv"
"RWT<1>v" "RWT_1v"
"TagWriteAckv" "TagWriteAckv"
"HitValidv" "HitValidv"
"~CPU_Addr<32>v" "\\~CPU_Addr_32v"
"~CPU_Addr<31>v" "\\~CPU_Addr_31v"
"~CPU_Addr<30>v" "\\~CPU_Addr_30v"
"~CPU_Addr<29>v" "\\~CPU_Addr_29v"
"~CPU_Addr<28>v" "\\~CPU_Addr_28v"
"~CPU_Addr<27>v" "\\~CPU_Addr_27v"
"~CPU_Addr<26>v" "\\~CPU_Addr_26v"
"~CPU_Addr<25>v" "\\~CPU_Addr_25v"
"~CPU_Addr<24>v" "\\~CPU_Addr_24v"
"~CPU_Addr<23>v" "\\~CPU_Addr_23v"
"~CPU_Addr<22>v" "\\~CPU_Addr_22v"
"~CPU_Addr<21>v" "\\~CPU_Addr_21v"
"~CPU_Addr<20>v" "\\~CPU_Addr_20v"
"~CPU_Addr<19>v" "\\~CPU_Addr_19v"
"~CPU_Addr<18>v" "\\~CPU_Addr_18v"
"~CPU_Addr<17>v" "\\~CPU_Addr_17v"
"~CPU_Addr<16>v" "\\~CPU_Addr_16v"
"~CPU_Addr<15>v" "\\~CPU_Addr_15v"
"~CPU_Addr<14>v" "\\~CPU_Addr_14v"
"~CPU_Addr<13>v" "\\~CPU_Addr_13v"
"~CPU_Addr<12>v" "\\~CPU_Addr_12v"
"~CPU_Addr<11>v" "\\~CPU_Addr_11v"
"~CPU_Addr<10>v" "\\~CPU_Addr_10v"
"~CPU_Addr<9>v" "\\~CPU_Addr_9v"
"~CPU_Addr<8>v" "\\~CPU_Addr_8v"
"~CPU_Addr<7>v" "\\~CPU_Addr_7v"
"~CPU_Addr<6>v" "\\~CPU_Addr_6v"
"~CPU_Addr<5>v" "\\~CPU_Addr_5v"
"~CPU_Addr<4>v" "\\~CPU_Addr_4v"
"~CPU_Addr<3>v" "\\~CPU_Addr_3v"
"~CPU_Addr<2>v" "\\~CPU_Addr_2v"
"~CPU_Addr<1>v" "\\~CPU_Addr_1v"
"~CPU_Addr<0>v" "\\~CPU_Addr_0v"
"~WData<15>v" "\\~WData_15v"
"~WData<14>v" "\\~WData_14v"
"~WData<13>v" "\\~WData_13v"
"~WData<12>v" "\\~WData_12v"
"~WData<11>v" "\\~WData_11v"
"~WData<10>v" "\\~WData_10v"
"~WData<9>v" "\\~WData_9v"
"~WData<8>v" "\\~WData_8v"
"~WData<7>v" "\\~WData_7v"
"~WData<6>v" "\\~WData_6v"
"~WData<5>v" "\\~WData_5v"
"~WData<4>v" "\\~WData_4v"
"~WData<3>v" "\\~WData_3v"
"~WData<2>v" "\\~WData_2v"
"~WData<1>v" "\\~WData_1v"
"~WData<0>v" "\\~WData_0v"
"net052<0>v" "net052_0v"
"net052<1>v" "net052_1v"
"net052<2>v" "net052_2v"
"net052<3>v" "net052_3v"
"net052<4>v" "net052_4v"
"net052<5>v" "net052_5v"
"net052<6>v" "net052_6v"
"net052<7>v" "net052_7v"
"net0117v" "net0117v"
"net098v" "net098v"
"net047v" "net047v"
"OutFIFOAckv" "OutFIFOAckv"
"net061v" "net061v"
"~Ackv" "\\~Ackv"
"net0121v" "net0121v"
"net041<0>v" "net041_0v"
"net041<1>v" "net041_1v"
"net041<2>v" "net041_2v"
"net041<3>v" "net041_3v"
"net041<4>v" "net041_4v"
"net041<5>v" "net041_5v"
"net041<6>v" "net041_6v"
"AckTv" "AckTv"
"net037<0>v" "net037_0v"
"net037<1>v" "net037_1v"
"net037<2>v" "net037_2v"
"net037<3>v" "net037_3v"
"net037<4>v" "net037_4v"
"net037<5>v" "net037_5v"
"net037<6>v" "net037_6v"
"net037<7>v" "net037_7v"
"net037<8>v" "net037_8v"
"net037<9>v" "net037_9v"
"net037<10>v" "net037_10v"
"net037<11>v" "net037_11v"
"net037<12>v" "net037_12v"
"net037<13>v" "net037_13v"
"net037<14>v" "net037_14v"
"net037<15>v" "net037_15v"
"net037<16>v" "net037_16v"
"net037<17>v" "net037_17v"
"net037<18>v" "net037_18v"
"net037<19>v" "net037_19v"
"net037<20>v" "net037_20v"
"net037<21>v" "net037_21v"
"net037<22>v" "net037_22v"
"net037<23>v" "net037_23v"
"net037<24>v" "net037_24v"
"net037<25>v" "net037_25v"
"net037<26>v" "net037_26v"
"net037<27>v" "net037_27v"
"net037<28>v" "net037_28v"
"net037<29>v" "net037_29v"
"net037<30>v" "net037_30v"
"net037<31>v" "net037_31v"
"~Reqv" "\\~Reqv"
"L1REv" "L1REv"
"gnd!v" "0v"
"vdd!v" "vdd!v"
"vcc!v" "vcc!v"
