HEADER
"PSFversion" "1.00"
"Iv" "Iv"
"net11v" "net11v"
"Sel<1>v" "Sel_1v"
"Sel<0>v" "Sel_0v"
"Env" "Env"
"net8v" "net8v"
