HEADER
"PSFversion" "1.00"
"I5n I4n" "inv_1x"
"I3n I2n I1n I0n" "and3"
"Env" ":1v"
"I<1>v" ":2v"
"I<0>v" ":3v"
"Sel<3>v" ":4v"
"Sel<2>v" ":5v"
"Sel<1>v" ":6v"
"Sel<0>v" ":7v"
