HEADER
"PSFversion" "1.00"
"dv" "dv"
"net10v" "net10v"
"q0v" "q0v"
"reqv" "reqv"
"q1v" "q1v"
