HEADER
"PSFversion" "1.00"
"net25v" "net25v"
"Av" "Av"
"net23v" "net23v"
"net042v" "net042v"
"net027v" "net027v"
"net046v" "net046v"
"Hv" "Hv"
"net031v" "net031v"
"Ev" "Ev"
"Bv" "Bv"
"Gv" "Gv"
"Fv" "Fv"
"Dv" "Dv"
"net24v" "net24v"
"net025v" "net025v"
"Yv" "Yv"
"Cv" "Cv"
"Iv" "Iv"
