HEADER
"PSFversion" "1.00"
"Yv" "Yv"
"net24v" "net24v"
"Kv" "Kv"
"Gv" "Gv"
"Lv" "Lv"
"Mv" "Mv"
"net073v" "net073v"
"net075v" "net075v"
"Cv" "Cv"
"net25v" "net25v"
"Fv" "Fv"
"Hv" "Hv"
"Bv" "Bv"
"Nv" "Nv"
"net072v" "net072v"
"Iv" "Iv"
"Ev" "Ev"
"Av" "Av"
"Dv" "Dv"
"Jv" "Jv"
"net058v" "net058v"
"net23v" "net23v"
"net074v" "net074v"
"net031v" "net031v"
"net027v" "net027v"
"net051v" "net051v"
