HEADER
"PSFversion" "1.00"
"M27n M26n M25n M24n M23n M22n M21n M20n M10n M8n M5n M4n M1n M0n" "NCSU_TechLib_FreePDK15_pfet_spectre"
"M19n M18n M17n M16n M15n M14n M13n M12n M11n M9n M7n M6n M3n M2n" "NCSU_TechLib_FreePDK15_nfet_spectre"
"Av" ":1v"
"Bv" ":2v"
"Cv" ":3v"
"Dv" ":4v"
"Ev" ":5v"
"Fv" ":6v"
"Gv" ":7v"
"Hv" ":8v"
"Iv" ":9v"
"Jv" ":10v"
"Kv" ":11v"
"Lv" ":12v"
"Mv" ":13v"
"Nv" ":14v"
"Yv" ":15v"
