HEADER
"PSFversion" "1.00"
"y3v" "y3v"
"ReadFromL1Ackv" "ReadFromL1Ackv"
"WriteToL1Ackv" "WriteToL1Ackv"
"Writev" "Writev"
"TagREv" "TagREv"
"WriteToL1Reqv" "WriteToL1Reqv"
"TagRAckv" "TagRAckv"
"Readv" "Readv"
"FIFOAckv" "FIFOAckv"
"FIFOReq_nv" "FIFOReq_nv"
"TagHit_nv" "TagHit_nv"
"TagRdRegAck_nv" "TagRdRegAck_nv"
"Write_nv" "Write_nv"
"Read_nv" "Read_nv"
"Y2_nv" "Y2_nv"
"Y1_nv" "Y1_nv"
"Y0_nv" "Y0_nv"
"Y3_nv" "Y3_nv"
"ReadFromL1Ack_nv" "ReadFromL1Ack_nv"
"WriteToL1Ack_nv" "WriteToL1Ack_nv"
"TagRAck_nv" "TagRAck_nv"
"p9v" "p9v"
"p13v" "p13v"
"p14v" "p14v"
"TagRdRegReqv" "TagRdRegReqv"
"p15v" "p15v"
"p16v" "p16v"
"p17v" "p17v"
"p18v" "p18v"
"p19v" "p19v"
"p20v" "p20v"
"p1v" "p1v"
"p2v" "p2v"
"p3v" "p3v"
"p4v" "p4v"
"p5v" "p5v"
"p6v" "p6v"
"p7v" "p7v"
"p8v" "p8v"
"p10v" "p10v"
"ReadFromL1Reqv" "ReadFromL1Reqv"
"p11v" "p11v"
"FIFOReqv" "FIFOReqv"
"p12v" "p12v"
"TagHitv" "TagHitv"
"p21v" "p21v"
"p22v" "p22v"
"p23v" "p23v"
"y0v" "y0v"
"y1v" "y1v"
"y2v" "y2v"
"TagRdRegAckv" "TagRdRegAckv"
