HEADER
"PSFversion" "1.00"
"net011v" "net011v"
"Dv" "Dv"
"Qv" "Qv"
"net4v" "net4v"
"~Qv" "\\~Qv"
"net3v" "net3v"
"net07v" "net07v"
"CLKv" "CLKv"
