HEADER
"PSFversion" "1.00"
"req_bv" "req_bv"
"ack_av" "ack_av"
"req_av" "req_av"
"net10v" "net10v"
"net9v" "net9v"
"ack_bv" "ack_bv"
