HEADER
"PSFversion" "1.00"
"I5<31>v" "I5_31v"
"I4n" "HS_Cordic"
"I5<30>v" "I5_30v"
"I5<29>v" "I5_29v"
"I5<28>v" "I5_28v"
"I5<27>v" "I5_27v"
"I5<26>v" "I5_26v"
"I5<25>v" "I5_25v"
"I5<24>v" "I5_24v"
"I5<23>v" "I5_23v"
"I5<22>v" "I5_22v"
"I5<21>v" "I5_21v"
"I5<20>v" "I5_20v"
"I5<19>v" "I5_19v"
"I5<18>v" "I5_18v"
"I5<17>v" "I5_17v"
"I5<16>v" "I5_16v"
"I5<15>v" "I5_15v"
"I5<14>v" "I5_14v"
"I5<13>v" "I5_13v"
"I5<12>v" "I5_12v"
"I5<11>v" "I5_11v"
"I5<10>v" "I5_10v"
"I5<9>v" "I5_9v"
"I5<8>v" "I5_8v"
"I5<7>v" "I5_7v"
"I5<6>v" "I5_6v"
"I5<5>v" "I5_5v"
"I5<4>v" "I5_4v"
"I5<3>v" "I5_3v"
"I5<2>v" "I5_2v"
"I5<1>v" "I5_1v"
"I5<0>v" "I5_0v"
"I5<31>n I5<30>n I5<29>n I5<28>n I5<27>n I5<26>n I5<25>n I5<24>n I5<23>n I5<22>n I5<21>n I5<20>n I5<19>n I5<18>n I5<17>n I5<16>n I5<15>n I5<14>n I5<13>n I5<12>n I5<11>n I5<10>n I5<9>n I5<8>n I5<7>n I5<6>n I5<5>n I5<4>n I5<3>n I5<2>n I5<1>n I5<0>n" "DFlop"
"Data<31>v" ":1v"
"Data<30>v" ":2v"
"Data<29>v" ":3v"
"Data<28>v" ":4v"
"Data<27>v" ":5v"
"Data<26>v" ":6v"
"Data<25>v" ":7v"
"Data<24>v" ":8v"
"Data<23>v" ":9v"
"Data<22>v" ":10v"
"Data<21>v" ":11v"
"Data<20>v" ":12v"
"Data<19>v" ":13v"
"Data<18>v" ":14v"
"Data<17>v" ":15v"
"Data<16>v" ":16v"
"Data<15>v" ":17v"
"Data<14>v" ":18v"
"Data<13>v" ":19v"
"Data<12>v" ":20v"
"Data<11>v" ":21v"
"Data<10>v" ":22v"
"Data<9>v" ":23v"
"Data<8>v" ":24v"
"Data<7>v" ":25v"
"Data<6>v" ":26v"
"Data<5>v" ":27v"
"Data<4>v" ":28v"
"Data<3>v" ":29v"
"Data<2>v" ":30v"
"Data<1>v" ":31v"
"Data<0>v" ":32v"
"Dout<31>v" ":33v"
"Dout<30>v" ":34v"
"Dout<29>v" ":35v"
"Dout<28>v" ":36v"
"Dout<27>v" ":37v"
"Dout<26>v" ":38v"
"Dout<25>v" ":39v"
"Dout<24>v" ":40v"
"Dout<23>v" ":41v"
"Dout<22>v" ":42v"
"Dout<21>v" ":43v"
"Dout<20>v" ":44v"
"Dout<19>v" ":45v"
"Dout<18>v" ":46v"
"Dout<17>v" ":47v"
"Dout<16>v" ":48v"
"Dout<15>v" ":49v"
"Dout<14>v" ":50v"
"Dout<13>v" ":51v"
"Dout<12>v" ":52v"
"Dout<11>v" ":53v"
"Dout<10>v" ":54v"
"Dout<9>v" ":55v"
"Dout<8>v" ":56v"
"Dout<7>v" ":57v"
"Dout<6>v" ":58v"
"Dout<5>v" ":59v"
"Dout<4>v" ":60v"
"Dout<3>v" ":61v"
"Dout<2>v" ":62v"
"Dout<1>v" ":63v"
"Dout<0>v" ":64v"
"Reqv" ":65v"
"ReqOutv" ":66v"
"ackInv" ":67v"
"ackOutv" ":68v"
