HEADER
"PSFversion" "1.00"
"Reqv" "Reqv"
"net023<0>v" "net023_0v"
"net023<1>v" "net023_1v"
"net023<2>v" "net023_2v"
"net023<3>v" "net023_3v"
"net023<4>v" "net023_4v"
"net023<5>v" "net023_5v"
"net023<6>v" "net023_6v"
"net023<7>v" "net023_7v"
"net023<8>v" "net023_8v"
"net023<9>v" "net023_9v"
"net023<10>v" "net023_10v"
"net023<11>v" "net023_11v"
"net023<12>v" "net023_12v"
"net023<13>v" "net023_13v"
"net023<14>v" "net023_14v"
"net023<15>v" "net023_15v"
"net023<16>v" "net023_16v"
"net023<17>v" "net023_17v"
"net023<18>v" "net023_18v"
"net023<19>v" "net023_19v"
"net023<20>v" "net023_20v"
"net023<21>v" "net023_21v"
"net023<22>v" "net023_22v"
"net023<23>v" "net023_23v"
"net023<24>v" "net023_24v"
"net023<25>v" "net023_25v"
"net023<26>v" "net023_26v"
"net023<27>v" "net023_27v"
"net023<28>v" "net023_28v"
"net023<29>v" "net023_29v"
"net023<30>v" "net023_30v"
"net023<31>v" "net023_31v"
"ackInv" "ackInv"
"ReqOutv" "ReqOutv"
"ackOutv" "ackOutv"
"Data<31>v" "Data_31v"
"Data<30>v" "Data_30v"
"Data<29>v" "Data_29v"
"Data<28>v" "Data_28v"
"Data<27>v" "Data_27v"
"Data<26>v" "Data_26v"
"Data<25>v" "Data_25v"
"Data<24>v" "Data_24v"
"Data<23>v" "Data_23v"
"Data<22>v" "Data_22v"
"Data<21>v" "Data_21v"
"Data<20>v" "Data_20v"
"Data<19>v" "Data_19v"
"Data<18>v" "Data_18v"
"Data<17>v" "Data_17v"
"Data<16>v" "Data_16v"
"Data<15>v" "Data_15v"
"Data<14>v" "Data_14v"
"Data<13>v" "Data_13v"
"Data<12>v" "Data_12v"
"Data<11>v" "Data_11v"
"Data<10>v" "Data_10v"
"Data<9>v" "Data_9v"
"Data<8>v" "Data_8v"
"Data<7>v" "Data_7v"
"Data<6>v" "Data_6v"
"Data<5>v" "Data_5v"
"Data<4>v" "Data_4v"
"Data<3>v" "Data_3v"
"Data<2>v" "Data_2v"
"Data<1>v" "Data_1v"
"Data<0>v" "Data_0v"
"Dout<31>v" "Dout_31v"
"Dout<30>v" "Dout_30v"
"Dout<29>v" "Dout_29v"
"Dout<28>v" "Dout_28v"
"Dout<27>v" "Dout_27v"
"Dout<26>v" "Dout_26v"
"Dout<25>v" "Dout_25v"
"Dout<24>v" "Dout_24v"
"Dout<23>v" "Dout_23v"
"Dout<22>v" "Dout_22v"
"Dout<21>v" "Dout_21v"
"Dout<20>v" "Dout_20v"
"Dout<19>v" "Dout_19v"
"Dout<18>v" "Dout_18v"
"Dout<17>v" "Dout_17v"
"Dout<16>v" "Dout_16v"
"Dout<15>v" "Dout_15v"
"Dout<14>v" "Dout_14v"
"Dout<13>v" "Dout_13v"
"Dout<12>v" "Dout_12v"
"Dout<11>v" "Dout_11v"
"Dout<10>v" "Dout_10v"
"Dout<9>v" "Dout_9v"
"Dout<8>v" "Dout_8v"
"Dout<7>v" "Dout_7v"
"Dout<6>v" "Dout_6v"
"Dout<5>v" "Dout_5v"
"Dout<4>v" "Dout_4v"
"Dout<3>v" "Dout_3v"
"Dout<2>v" "Dout_2v"
"Dout<1>v" "Dout_1v"
"Dout<0>v" "Dout_0v"
