HEADER
"PSFversion" "1.00"
"~Rreqv" "\\~Rreqv"
"~Rackv" "\\~Rackv"
"~Rdata<31>v" "\\~Rdata_31v"
"~Rdata<30>v" "\\~Rdata_30v"
"~Rdata<29>v" "\\~Rdata_29v"
"~Rdata<28>v" "\\~Rdata_28v"
"~Rdata<27>v" "\\~Rdata_27v"
"~Rdata<26>v" "\\~Rdata_26v"
"~Rdata<25>v" "\\~Rdata_25v"
"~Rdata<24>v" "\\~Rdata_24v"
"~Rdata<23>v" "\\~Rdata_23v"
"~Rdata<22>v" "\\~Rdata_22v"
"~Rdata<21>v" "\\~Rdata_21v"
"~Rdata<20>v" "\\~Rdata_20v"
"~Rdata<19>v" "\\~Rdata_19v"
"~Rdata<18>v" "\\~Rdata_18v"
"~Rdata<17>v" "\\~Rdata_17v"
"~Rdata<16>v" "\\~Rdata_16v"
"~Rdata<15>v" "\\~Rdata_15v"
"~Rdata<14>v" "\\~Rdata_14v"
"~Rdata<13>v" "\\~Rdata_13v"
"~Rdata<12>v" "\\~Rdata_12v"
"~Rdata<11>v" "\\~Rdata_11v"
"~Rdata<10>v" "\\~Rdata_10v"
"~Rdata<9>v" "\\~Rdata_9v"
"~Rdata<8>v" "\\~Rdata_8v"
"~Rdata<7>v" "\\~Rdata_7v"
"~Rdata<6>v" "\\~Rdata_6v"
"~Rdata<5>v" "\\~Rdata_5v"
"~Rdata<4>v" "\\~Rdata_4v"
"~Rdata<3>v" "\\~Rdata_3v"
"~Rdata<2>v" "\\~Rdata_2v"
"~Rdata<1>v" "\\~Rdata_1v"
"~Rdata<0>v" "\\~Rdata_0v"
"RreqTv" "RreqTv"
"DataInT<31>v" "DataInT_31v"
"DataInT<30>v" "DataInT_30v"
"DataInT<29>v" "DataInT_29v"
"DataInT<28>v" "DataInT_28v"
"DataInT<27>v" "DataInT_27v"
"DataInT<26>v" "DataInT_26v"
"DataInT<25>v" "DataInT_25v"
"DataInT<24>v" "DataInT_24v"
"DataInT<23>v" "DataInT_23v"
"DataInT<22>v" "DataInT_22v"
"DataInT<21>v" "DataInT_21v"
"DataInT<20>v" "DataInT_20v"
"DataInT<19>v" "DataInT_19v"
"DataInT<18>v" "DataInT_18v"
"DataInT<17>v" "DataInT_17v"
"DataInT<16>v" "DataInT_16v"
"DataInT<15>v" "DataInT_15v"
"DataInT<14>v" "DataInT_14v"
"DataInT<13>v" "DataInT_13v"
"DataInT<12>v" "DataInT_12v"
"DataInT<11>v" "DataInT_11v"
"DataInT<10>v" "DataInT_10v"
"DataInT<9>v" "DataInT_9v"
"DataInT<8>v" "DataInT_8v"
"DataInT<7>v" "DataInT_7v"
"DataInT<6>v" "DataInT_6v"
"DataInT<5>v" "DataInT_5v"
"DataInT<4>v" "DataInT_4v"
"DataInT<3>v" "DataInT_3v"
"DataInT<2>v" "DataInT_2v"
"DataInT<1>v" "DataInT_1v"
"DataInT<0>v" "DataInT_0v"
"LreqTv" "LreqTv"
"~ackOutv" "\\~ackOutv"
"~DataIn<31>v" "\\~DataIn_31v"
"~DataIn<30>v" "\\~DataIn_30v"
"~DataIn<29>v" "\\~DataIn_29v"
"~DataIn<28>v" "\\~DataIn_28v"
"~DataIn<27>v" "\\~DataIn_27v"
"~DataIn<26>v" "\\~DataIn_26v"
"~DataIn<25>v" "\\~DataIn_25v"
"~DataIn<24>v" "\\~DataIn_24v"
"~DataIn<23>v" "\\~DataIn_23v"
"~DataIn<22>v" "\\~DataIn_22v"
"~DataIn<21>v" "\\~DataIn_21v"
"~DataIn<20>v" "\\~DataIn_20v"
"~DataIn<19>v" "\\~DataIn_19v"
"~DataIn<18>v" "\\~DataIn_18v"
"~DataIn<17>v" "\\~DataIn_17v"
"~DataIn<16>v" "\\~DataIn_16v"
"~DataIn<15>v" "\\~DataIn_15v"
"~DataIn<14>v" "\\~DataIn_14v"
"~DataIn<13>v" "\\~DataIn_13v"
"~DataIn<12>v" "\\~DataIn_12v"
"~DataIn<11>v" "\\~DataIn_11v"
"~DataIn<10>v" "\\~DataIn_10v"
"~DataIn<9>v" "\\~DataIn_9v"
"~DataIn<8>v" "\\~DataIn_8v"
"~DataIn<7>v" "\\~DataIn_7v"
"~DataIn<6>v" "\\~DataIn_6v"
"~DataIn<5>v" "\\~DataIn_5v"
"~DataIn<4>v" "\\~DataIn_4v"
"~DataIn<3>v" "\\~DataIn_3v"
"~DataIn<2>v" "\\~DataIn_2v"
"~DataIn<1>v" "\\~DataIn_1v"
"~DataIn<0>v" "\\~DataIn_0v"
"~Lreqv" "\\~Lreqv"
"ackOutTv" "ackOutTv"
"RdataT<31>v" "RdataT_31v"
"RdataT<30>v" "RdataT_30v"
"RdataT<29>v" "RdataT_29v"
"RdataT<28>v" "RdataT_28v"
"RdataT<27>v" "RdataT_27v"
"RdataT<26>v" "RdataT_26v"
"RdataT<25>v" "RdataT_25v"
"RdataT<24>v" "RdataT_24v"
"RdataT<23>v" "RdataT_23v"
"RdataT<22>v" "RdataT_22v"
"RdataT<21>v" "RdataT_21v"
"RdataT<20>v" "RdataT_20v"
"RdataT<19>v" "RdataT_19v"
"RdataT<18>v" "RdataT_18v"
"RdataT<17>v" "RdataT_17v"
"RdataT<16>v" "RdataT_16v"
"RdataT<15>v" "RdataT_15v"
"RdataT<14>v" "RdataT_14v"
"RdataT<13>v" "RdataT_13v"
"RdataT<12>v" "RdataT_12v"
"RdataT<11>v" "RdataT_11v"
"RdataT<10>v" "RdataT_10v"
"RdataT<9>v" "RdataT_9v"
"RdataT<8>v" "RdataT_8v"
"RdataT<7>v" "RdataT_7v"
"RdataT<6>v" "RdataT_6v"
"RdataT<5>v" "RdataT_5v"
"RdataT<4>v" "RdataT_4v"
"RdataT<3>v" "RdataT_3v"
"RdataT<2>v" "RdataT_2v"
"RdataT<1>v" "RdataT_1v"
"RdataT<0>v" "RdataT_0v"
"RackTv" "RackTv"
"gnd!v" "0v"
"vdd!v" "vdd!v"
"vcc!v" "vcc!v"
