HEADER
"PSFversion" "1.00"
"I20n" "HS_CordicFIFO"
"V1n V0n" "UCD_Analog_Parts_vdc_spectre"
"I12<31>v" "I12_31v"
"I12<30>v" "I12_30v"
"I12<29>v" "I12_29v"
"I12<28>v" "I12_28v"
"I12<27>v" "I12_27v"
"I12<26>v" "I12_26v"
"I12<25>v" "I12_25v"
"I12<24>v" "I12_24v"
"I12<23>v" "I12_23v"
"I12<22>v" "I12_22v"
"I12<21>v" "I12_21v"
"I12<20>v" "I12_20v"
"I12<19>v" "I12_19v"
"I12<18>v" "I12_18v"
"I12<17>v" "I12_17v"
"I12<16>v" "I12_16v"
"I12<15>v" "I12_15v"
"I12<14>v" "I12_14v"
"I12<13>v" "I12_13v"
"I12<12>v" "I12_12v"
"I12<11>v" "I12_11v"
"I12<10>v" "I12_10v"
"I12<9>v" "I12_9v"
"I12<8>v" "I12_8v"
"I12<7>v" "I12_7v"
"I12<6>v" "I12_6v"
"I12<5>v" "I12_5v"
"I12<4>v" "I12_4v"
"I12<3>v" "I12_3v"
"I12<2>v" "I12_2v"
"I12<1>v" "I12_1v"
"I12<0>v" "I12_0v"
"I11<31>v" "I11_31v"
"I11<30>v" "I11_30v"
"I11<29>v" "I11_29v"
"I11<28>v" "I11_28v"
"I11<27>v" "I11_27v"
"I11<26>v" "I11_26v"
"I11<25>v" "I11_25v"
"I11<24>v" "I11_24v"
"I11<23>v" "I11_23v"
"I11<22>v" "I11_22v"
"I11<21>v" "I11_21v"
"I11<20>v" "I11_20v"
"I11<19>v" "I11_19v"
"I11<18>v" "I11_18v"
"I11<17>v" "I11_17v"
"I11<16>v" "I11_16v"
"I11<15>v" "I11_15v"
"I11<14>v" "I11_14v"
"I11<13>v" "I11_13v"
"I11<12>v" "I11_12v"
"I11<11>v" "I11_11v"
"I11<10>v" "I11_10v"
"I11<9>v" "I11_9v"
"I11<8>v" "I11_8v"
"I11<7>v" "I11_7v"
"I11<6>v" "I11_6v"
"I11<5>v" "I11_5v"
"I11<4>v" "I11_4v"
"I11<3>v" "I11_3v"
"I11<2>v" "I11_2v"
"I11<1>v" "I11_1v"
"I11<0>v" "I11_0v"
"I8n I7n I12<31>n I12<30>n I12<29>n I12<28>n I12<27>n I12<26>n I12<25>n I12<24>n I12<23>n I12<22>n I12<21>n I12<20>n I12<19>n I12<18>n I12<17>n I12<16>n I12<15>n I12<14>n I12<13>n I12<12>n I12<11>n I12<10>n I12<9>n I12<8>n I12<7>n I12<6>n I12<5>n I12<4>n I12<3>n I12<2>n I12<1>n I12<0>n I11<31>n I11<30>n I11<29>n I11<28>n I11<27>n I11<26>n I11<25>n I11<24>n I11<23>n I11<22>n I11<21>n I11<20>n I11<19>n I11<18>n I11<17>n I11<16>n I11<15>n I11<14>n I11<13>n I11<12>n I11<11>n I11<10>n I11<9>n I11<8>n I11<7>n I11<6>n I11<5>n I11<4>n I11<3>n I11<2>n I11<1>n I11<0>n I16n I15n" "inv_1xt"
