HEADER
"PSFversion" "1.00"
"__NEXT_FILE__" "HS_Dual_Cordic_Test"
