HEADER
"PSFversion" "1.00"
"IRPCHB<3>v" "IRPCHB_3v"
"IRPCHB<2>v" "IRPCHB_2v"
"IRPCHB<1>v" "IRPCHB_1v"
"IRPCHB<0>v" "IRPCHB_0v"
"IRPCHB<3>n IRPCHB<2>n IRPCHB<1>n IRPCHB<0>n" "PCHBd"
"IWPCHB0<1>v" "IWPCHB0_1v"
"I8n" "nand_1x"
"IWPCHB0<0>v" "IWPCHB0_0v"
"IWPCHB1<1>v" "IWPCHB1_1v"
"IWPCHB1<0>v" "IWPCHB1_0v"
"I13<3>v" "I13_3v"
"IWPCHB0<1>n IWPCHB0<0>n IWPCHB1<1>n IWPCHB1<0>n" "PCHB_Write"
"I13<2>v" "I13_2v"
"I13<1>v" "I13_1v"
"I13<0>v" "I13_0v"
"I11<3>v" "I11_3v"
"I11<2>v" "I11_2v"
"I11<1>v" "I11_1v"
"I11<0>v" "I11_0v"
"M0<3>v" "M0_3v"
"I13<3>n I13<2>n I13<1>n I13<0>n I11<3>n I11<2>n I11<1>n I11<0>n" "and_1x"
"M0<2>v" "M0_2v"
"M0<1>v" "M0_1v"
"M0<0>v" "M0_0v"
"M1<3>v" "M1_3v"
"M1<2>v" "M1_2v"
"M1<1>v" "M1_1v"
"M1<0>v" "M1_0v"
"I4<3>v" "I4_3v"
"M0<3>n M0<2>n M0<1>n M0<0>n M1<3>n M1<2>n M1<1>n M1<0>n" "NCSU_TechLib_FreePDK15_pfet_spectre"
"I4<2>v" "I4_2v"
"I4<1>v" "I4_1v"
"I4<0>v" "I4_0v"
"I6<3>v" "I6_3v"
"I6<2>v" "I6_2v"
"I6<1>v" "I6_1v"
"I6<0>v" "I6_0v"
"I4<3>n I4<2>n I4<1>n I4<0>n I6<3>n I6<2>n I6<1>n I6<0>n" "inv_1x"
"I1n" "basic_cds_thru_spectre"
"IRWCHB<1>v" "IRWCHB_1v"
"I9n I7n" "TH22"
"IRWCHB<0>v" "IRWCHB_0v"
"IRWCHB<1>n IRWCHB<0>n" "WCHB_Read"
"I16n I0n" "\\TH44~ "
"IWWCHB1n IWWCHB0n" "WCHB_Write"
"W1_1of4<3>v" "(FUNCTION or(mappedRoot(\".16[3]@index\") mappedRoot(\".W1_1of4[3]\")))v"
"W1_1of4<3>v" ".W1_1of4[3]v"
"W1_1of4<3>v" ".\\16[3] v"
"W1_1of4<2>v" "(FUNCTION or(mappedRoot(\".16[2]@index\") mappedRoot(\".W1_1of4[2]\")))v"
"W1_1of4<2>v" ".W1_1of4[2]v"
"W1_1of4<2>v" ".\\16[2] v"
"W1_1of4<1>v" "(FUNCTION or(mappedRoot(\".16[1]@index\") mappedRoot(\".W1_1of4[1]\")))v"
"W1_1of4<1>v" ".W1_1of4[1]v"
"W1_1of4<1>v" ".\\16[1] v"
"W1_1of4<0>v" "(FUNCTION or(mappedRoot(\".16[0]@index\") mappedRoot(\".W1_1of4[0]\")))v"
"W1_1of4<0>v" ".W1_1of4[0]v"
"W1_1of4<0>v" ".\\16[0] v"
"R2_1of4<3>v" ".R2_1of4[3]v"
"R2_1of4<2>v" ".R2_1of4[2]v"
"R2_1of4<1>v" ".R2_1of4[1]v"
"R2_1of4<0>v" ".R2_1of4[0]v"
"W2_1of4<3>v" "(FUNCTION or(mappedRoot(\".17[3]@index\") mappedRoot(\".W2_1of4[3]\")))v"
"W2_1of4<3>v" ".W2_1of4[3]v"
"W2_1of4<3>v" ".\\17[3] v"
"W2_1of4<2>v" "(FUNCTION or(mappedRoot(\".17[2]@index\") mappedRoot(\".W2_1of4[2]\")))v"
"W2_1of4<2>v" ".W2_1of4[2]v"
"W2_1of4<2>v" ".\\17[2] v"
"W2_1of4<1>v" "(FUNCTION or(mappedRoot(\".17[1]@index\") mappedRoot(\".W2_1of4[1]\")))v"
"W2_1of4<1>v" ".W2_1of4[1]v"
"W2_1of4<1>v" ".\\17[1] v"
"W2_1of4<0>v" "(FUNCTION or(mappedRoot(\".17[0]@index\") mappedRoot(\".W2_1of4[0]\")))v"
"W2_1of4<0>v" ".W2_1of4[0]v"
"W2_1of4<0>v" ".\\17[0] v"
"R1_1of4<3>v" ".R1_1of4[3]v"
"R1_1of4<2>v" ".R1_1of4[2]v"
"R1_1of4<1>v" ".R1_1of4[1]v"
"R1_1of4<0>v" ".R1_1of4[0]v"
"Resetv" "(FUNCTION or(mappedRoot(\".13@index\") mappedRoot(\".Reset\")))v"
"Resetv" ".Resetv"
"Resetv" ".\\13 v"
"RW<1>v" "(FUNCTION or(mappedRoot(\".12[1]@index\") mappedRoot(\".RW[1]\")))v"
"RW<1>v" ".RW[1]v"
"RW<1>v" ".\\12[1] v"
"RW<0>v" "(FUNCTION or(mappedRoot(\".12[0]@index\") mappedRoot(\".RW[0]\")))v"
"RW<0>v" ".RW[0]v"
"RW<0>v" ".\\12[0] v"
"Ackv" "(FUNCTION or(mappedRoot(\".1@index\") mappedRoot(\".Ack\")))v"
"Ackv" ".Ackv"
"Ackv" ".\\1 v"
"ValAddrv" "(FUNCTION or(mappedRoot(\".14@index\") mappedRoot(\".ValAddr\")))v"
"ValAddrv" ".ValAddrv"
"ValAddrv" ".\\14 v"
"W1<3>v" "(FUNCTION or(mappedRoot(\".8[3]@index\") mappedRoot(\".W1[3]\")))v"
"W1<3>v" ".W1[3]v"
"W1<3>v" ".\\8[3] v"
"W1<2>v" "(FUNCTION or(mappedRoot(\".8[2]@index\") mappedRoot(\".W1[2]\")))v"
"W1<2>v" ".W1[2]v"
"W1<2>v" ".\\8[2] v"
"W1<1>v" "(FUNCTION or(mappedRoot(\".8[1]@index\") mappedRoot(\".W1[1]\")))v"
"W1<1>v" ".W1[1]v"
"W1<1>v" ".\\8[1] v"
"W1<0>v" "(FUNCTION or(mappedRoot(\".8[0]@index\") mappedRoot(\".W1[0]\")))v"
"W1<0>v" ".W1[0]v"
"W1<0>v" ".\\8[0] v"
"W0<3>v" "(FUNCTION or(mappedRoot(\".7[3]@index\") mappedRoot(\".W0[3]\")))v"
"W0<3>v" ".W0[3]v"
"W0<3>v" ".\\7[3] v"
"W0<2>v" "(FUNCTION or(mappedRoot(\".7[2]@index\") mappedRoot(\".W0[2]\")))v"
"W0<2>v" ".W0[2]v"
"W0<2>v" ".\\7[2] v"
"W0<1>v" "(FUNCTION or(mappedRoot(\".7[1]@index\") mappedRoot(\".W0[1]\")))v"
"W0<1>v" ".W0[1]v"
"W0<1>v" ".\\7[1] v"
"W0<0>v" "(FUNCTION or(mappedRoot(\".7[0]@index\") mappedRoot(\".W0[0]\")))v"
"W0<0>v" ".W0[0]v"
"W0<0>v" ".\\7[0] v"
"Gov" "(FUNCTION or(mappedRoot(\".4@index\") mappedRoot(\".Go\")))v"
"Gov" ".Gov"
"Gov" ".\\4 v"
"B1<3>v" "(FUNCTION or(mappedRoot(\".3[3]@index\") mappedRoot(\".B1[3]\")))v"
"B1<3>v" ".B1[3]v"
"B1<3>v" ".\\3[3] v"
"B1<2>v" "(FUNCTION or(mappedRoot(\".3[2]@index\") mappedRoot(\".B1[2]\")))v"
"B1<2>v" ".B1[2]v"
"B1<2>v" ".\\3[2] v"
"B1<1>v" "(FUNCTION or(mappedRoot(\".3[1]@index\") mappedRoot(\".B1[1]\")))v"
"B1<1>v" ".B1[1]v"
"B1<1>v" ".\\3[1] v"
"B1<0>v" "(FUNCTION or(mappedRoot(\".3[0]@index\") mappedRoot(\".B1[0]\")))v"
"B1<0>v" ".B1[0]v"
"B1<0>v" ".\\3[0] v"
"B0<3>v" "(FUNCTION or(mappedRoot(\".2[3]@index\") mappedRoot(\".B0[3]\")))v"
"B0<3>v" ".B0[3]v"
"B0<3>v" ".\\2[3] v"
"B0<2>v" "(FUNCTION or(mappedRoot(\".2[2]@index\") mappedRoot(\".B0[2]\")))v"
"B0<2>v" ".B0[2]v"
"B0<2>v" ".\\2[2] v"
"B0<1>v" "(FUNCTION or(mappedRoot(\".2[1]@index\") mappedRoot(\".B0[1]\")))v"
"B0<1>v" ".B0[1]v"
"B0<1>v" ".\\2[1] v"
"B0<0>v" "(FUNCTION or(mappedRoot(\".2[0]@index\") mappedRoot(\".B0[0]\")))v"
"B0<0>v" ".B0[0]v"
"B0<0>v" ".\\2[0] v"
"~R0<3>v" "(FUNCTION or(mappedRoot(\".18[3]@index\") mappedRoot(\".\\\\~R0 [3]\")))v"
"~R0<3>v" ".\\\\~R0 [3]v"
"~R0<3>v" ".\\18[3] v"
"~R0<2>v" "(FUNCTION or(mappedRoot(\".18[2]@index\") mappedRoot(\".\\\\~R0 [2]\")))v"
"~R0<2>v" ".\\\\~R0 [2]v"
"~R0<2>v" ".\\18[2] v"
"~R0<1>v" "(FUNCTION or(mappedRoot(\".18[1]@index\") mappedRoot(\".\\\\~R0 [1]\")))v"
"~R0<1>v" ".\\\\~R0 [1]v"
"~R0<1>v" ".\\18[1] v"
"~R0<0>v" "(FUNCTION or(mappedRoot(\".18[0]@index\") mappedRoot(\".\\\\~R0 [0]\")))v"
"~R0<0>v" ".\\\\~R0 [0]v"
"~R0<0>v" ".\\18[0] v"
"~R1<3>v" "(FUNCTION or(mappedRoot(\".19[3]@index\") mappedRoot(\".\\\\~R1 [3]\")))v"
"~R1<3>v" ".\\\\~R1 [3]v"
"~R1<3>v" ".\\19[3] v"
"~R1<2>v" "(FUNCTION or(mappedRoot(\".19[2]@index\") mappedRoot(\".\\\\~R1 [2]\")))v"
"~R1<2>v" ".\\\\~R1 [2]v"
"~R1<2>v" ".\\19[2] v"
"~R1<1>v" "(FUNCTION or(mappedRoot(\".19[1]@index\") mappedRoot(\".\\\\~R1 [1]\")))v"
"~R1<1>v" ".\\\\~R1 [1]v"
"~R1<1>v" ".\\19[1] v"
"~R1<0>v" "(FUNCTION or(mappedRoot(\".19[0]@index\") mappedRoot(\".\\\\~R1 [0]\")))v"
"~R1<0>v" ".\\\\~R1 [0]v"
"~R1<0>v" ".\\19[0] v"
"RdataAck<1>v" "(FUNCTION or(mappedRoot(\".15[1]@index\") mappedRoot(\".RdataAck[1]\")))v"
"RdataAck<1>v" ".RdataAck[1]v"
"RdataAck<1>v" ".\\15[1] v"
"RdataAck<0>v" "(FUNCTION or(mappedRoot(\".15[0]@index\") mappedRoot(\".RdataAck[0]\")))v"
"RdataAck<0>v" ".RdataAck[0]v"
"RdataAck<0>v" ".\\15[0] v"
"AckThruTopv" "(FUNCTION or(mappedRoot(\".11@index\") mappedRoot(\".AckThruTop\")))v"
"AckThruTopv" ".AckThruTopv"
"AckThruTopv" ".\\11 v"
"AckThruBotv" "(FUNCTION or(mappedRoot(\".10@index\") mappedRoot(\".AckThruBot\")))v"
"AckThruBotv" ".AckThruBotv"
"AckThruBotv" ".\\10 v"
"WdataAck<1>v" "(FUNCTION or(mappedRoot(\".9[1]@index\") mappedRoot(\".WdataAck[1]\")))v"
"WdataAck<1>v" ".WdataAck[1]v"
"WdataAck<1>v" ".\\9[1] v"
"WdataAck<0>v" "(FUNCTION or(mappedRoot(\".9[0]@index\") mappedRoot(\".WdataAck[0]\")))v"
"WdataAck<0>v" ".WdataAck[0]v"
"WdataAck<0>v" ".\\9[0] v"
