HEADER
"PSFversion" "1.00"
"gndd!v" "gndd!v"
"vdd!v" "vdd!v"
"gnd!v" "0v"
