HEADER
"PSFversion" "1.00"
"I19n" "_sub17"
"V2n V1n" "UCD_Analog_Parts_vdc_spectre"
"V0n" "UCD_Analog_Parts_vpwl_spectre"
"M0n M1n M3<3>n M3<2>n M3<1>n M3<0>n M2<3>n M2<2>n M2<1>n M2<0>n" "NCSU_TechLib_FreePDK15_pfet_spectre"
"I1n" "inv_1x_PWR"
"IVDDLn I12n ILinen I18<14>n I18<13>n I18<12>n I18<11>n I18<10>n I18<9>n I18<8>n I18<7>n I18<6>n I18<5>n I18<4>n I18<3>n I18<2>n I18<1>n I18<0>n IVDDHn" "basic_cds_thru_spectre"
"C0n" "UCD_Analog_Parts_cap_spectre"
"I2n I10n" "inv_4x_PWR"
