HEADER
"PSFversion" "1.00"
"V0n" "UCD_Analog_Parts_vdc_spectre"
"I72n" "inv_1xt"
"V1n" "UCD_Analog_Parts_vpwl_spectre"
