HEADER
"PSFversion" "1.00"
"I0n" "_sub19"
"V0n V1n" "UCD_Analog_Parts_vdc_spectre"
"V5n V2n" "UCD_Analog_Parts_vpwl_spectre"
"M4n M3n M0<3>n M0<2>n M0<1>n M0<0>n M1<3>n M1<2>n M1<1>n M1<0>n" "NCSU_TechLib_FreePDK15_pfet_spectre"
"I6n I5n I24n" "inv_1x_PWR"
"I19<7>n I19<6>n I19<5>n I19<4>n I19<3>n I19<2>n I19<1>n I19<0>n I14<7>n I14<6>n I14<5>n I14<4>n I14<3>n I14<2>n I14<1>n I14<0>n" "basic_cds_thru_spectre"
"C0n" "UCD_Analog_Parts_cap_spectre"
"I25n" "inv_4x_PWR"
