HEADER
"PSFversion" "1.00"
"__NEXT_FILE__" "Dual_Supply_Test_schematic"
