HEADER
"PSFversion" "1.00"
"I0n" "inv_1x"
"V1n" "UCD_Analog_Parts_vpwl_spectre"
"V0n" "UCD_Analog_Parts_vdc_spectre"
