HEADER
"PSFversion" "1.00"
"vdd!v" "vdd!v"
"gnd!v" "0v"
