HEADER
"PSFversion" "1.00"
"M10n M0n" "NCSU_TechLib_FreePDK15_pfet_spectre"
"M9n M8n M7n M6n M5n M4n M3n M2n M1n" "NCSU_TechLib_FreePDK15_nfet_spectre"
"I6n I5n" "inv_1x_PWR"
"I61n" "Valid_DR_PWR"
"y0v" ":1v"
"y1v" ":2v"
"a0v" ":3v"
"a1v" ":4v"
"b0v" ":5v"
"b1v" ":6v"
"vAckv" ":7v"
"VDDv" ":8v"
"GNDv" ":9v"
