HEADER
"PSFversion" "1.00"
"net22v" "net22v"
"a1T<23>v" "a1T_23v"
"a1T<22>v" "a1T_22v"
"a1T<21>v" "a1T_21v"
"a1T<20>v" "a1T_20v"
"a1T<19>v" "a1T_19v"
"a1T<18>v" "a1T_18v"
"a1T<17>v" "a1T_17v"
"a1T<16>v" "a1T_16v"
"a1T<15>v" "a1T_15v"
"a1T<14>v" "a1T_14v"
"a1T<13>v" "a1T_13v"
"a1T<12>v" "a1T_12v"
"a1T<11>v" "a1T_11v"
"a1T<10>v" "a1T_10v"
"a1T<9>v" "a1T_9v"
"a1T<8>v" "a1T_8v"
"a1T<7>v" "a1T_7v"
"a1T<6>v" "a1T_6v"
"a1T<5>v" "a1T_5v"
"a1T<4>v" "a1T_4v"
"a1T<3>v" "a1T_3v"
"a1T<2>v" "a1T_2v"
"a1T<1>v" "a1T_1v"
"a1T<0>v" "a1T_0v"
"net21v" "net21v"
"net028<0>v" "net028_0v"
"net028<1>v" "net028_1v"
"net028<2>v" "net028_2v"
"net028<3>v" "net028_3v"
"net028<4>v" "net028_4v"
"net028<5>v" "net028_5v"
"net028<6>v" "net028_6v"
"net028<7>v" "net028_7v"
"net028<8>v" "net028_8v"
"net028<9>v" "net028_9v"
"net028<10>v" "net028_10v"
"net028<11>v" "net028_11v"
"net028<12>v" "net028_12v"
"net028<13>v" "net028_13v"
"net028<14>v" "net028_14v"
"net028<15>v" "net028_15v"
"net028<16>v" "net028_16v"
"net028<17>v" "net028_17v"
"net028<18>v" "net028_18v"
"net028<19>v" "net028_19v"
"net028<20>v" "net028_20v"
"net028<21>v" "net028_21v"
"net028<22>v" "net028_22v"
"net028<23>v" "net028_23v"
"net23v" "net23v"
"net029<0>v" "net029_0v"
"net029<1>v" "net029_1v"
"net029<2>v" "net029_2v"
"net029<3>v" "net029_3v"
"net029<4>v" "net029_4v"
"net029<5>v" "net029_5v"
"net029<6>v" "net029_6v"
"net029<7>v" "net029_7v"
"net029<8>v" "net029_8v"
"net029<9>v" "net029_9v"
"net029<10>v" "net029_10v"
"net029<11>v" "net029_11v"
"net029<12>v" "net029_12v"
"net029<13>v" "net029_13v"
"net029<14>v" "net029_14v"
"net029<15>v" "net029_15v"
"net029<16>v" "net029_16v"
"net029<17>v" "net029_17v"
"net029<18>v" "net029_18v"
"net029<19>v" "net029_19v"
"net029<20>v" "net029_20v"
"net029<21>v" "net029_21v"
"net029<22>v" "net029_22v"
"net029<23>v" "net029_23v"
"net026<0>v" "net026_0v"
"net026<1>v" "net026_1v"
"net026<2>v" "net026_2v"
"net026<3>v" "net026_3v"
"net026<4>v" "net026_4v"
"net026<5>v" "net026_5v"
"net026<6>v" "net026_6v"
"net026<7>v" "net026_7v"
"net026<8>v" "net026_8v"
"net026<9>v" "net026_9v"
"net026<10>v" "net026_10v"
"net026<11>v" "net026_11v"
"net026<12>v" "net026_12v"
"net026<13>v" "net026_13v"
"net026<14>v" "net026_14v"
"net026<15>v" "net026_15v"
"net026<16>v" "net026_16v"
"net026<17>v" "net026_17v"
"net026<18>v" "net026_18v"
"net026<19>v" "net026_19v"
"net026<20>v" "net026_20v"
"net026<21>v" "net026_21v"
"net026<22>v" "net026_22v"
"net026<23>v" "net026_23v"
"a0T<23>v" "a0T_23v"
"a0T<22>v" "a0T_22v"
"a0T<21>v" "a0T_21v"
"a0T<20>v" "a0T_20v"
"a0T<19>v" "a0T_19v"
"a0T<18>v" "a0T_18v"
"a0T<17>v" "a0T_17v"
"a0T<16>v" "a0T_16v"
"a0T<15>v" "a0T_15v"
"a0T<14>v" "a0T_14v"
"a0T<13>v" "a0T_13v"
"a0T<12>v" "a0T_12v"
"a0T<11>v" "a0T_11v"
"a0T<10>v" "a0T_10v"
"a0T<9>v" "a0T_9v"
"a0T<8>v" "a0T_8v"
"a0T<7>v" "a0T_7v"
"a0T<6>v" "a0T_6v"
"a0T<5>v" "a0T_5v"
"a0T<4>v" "a0T_4v"
"a0T<3>v" "a0T_3v"
"a0T<2>v" "a0T_2v"
"a0T<1>v" "a0T_1v"
"a0T<0>v" "a0T_0v"
"b0T<23>v" "b0T_23v"
"b0T<22>v" "b0T_22v"
"b0T<21>v" "b0T_21v"
"b0T<20>v" "b0T_20v"
"b0T<19>v" "b0T_19v"
"b0T<18>v" "b0T_18v"
"b0T<17>v" "b0T_17v"
"b0T<16>v" "b0T_16v"
"b0T<15>v" "b0T_15v"
"b0T<14>v" "b0T_14v"
"b0T<13>v" "b0T_13v"
"b0T<12>v" "b0T_12v"
"b0T<11>v" "b0T_11v"
"b0T<10>v" "b0T_10v"
"b0T<9>v" "b0T_9v"
"b0T<8>v" "b0T_8v"
"b0T<7>v" "b0T_7v"
"b0T<6>v" "b0T_6v"
"b0T<5>v" "b0T_5v"
"b0T<4>v" "b0T_4v"
"b0T<3>v" "b0T_3v"
"b0T<2>v" "b0T_2v"
"b0T<1>v" "b0T_1v"
"b0T<0>v" "b0T_0v"
"net027<0>v" "net027_0v"
"net027<1>v" "net027_1v"
"net027<2>v" "net027_2v"
"net027<3>v" "net027_3v"
"net027<4>v" "net027_4v"
"net027<5>v" "net027_5v"
"net027<6>v" "net027_6v"
"net027<7>v" "net027_7v"
"net027<8>v" "net027_8v"
"net027<9>v" "net027_9v"
"net027<10>v" "net027_10v"
"net027<11>v" "net027_11v"
"net027<12>v" "net027_12v"
"net027<13>v" "net027_13v"
"net027<14>v" "net027_14v"
"net027<15>v" "net027_15v"
"net027<16>v" "net027_16v"
"net027<17>v" "net027_17v"
"net027<18>v" "net027_18v"
"net027<19>v" "net027_19v"
"net027<20>v" "net027_20v"
"net027<21>v" "net027_21v"
"net027<22>v" "net027_22v"
"net027<23>v" "net027_23v"
"MissTv" "MissTv"
"ValidTv" "ValidTv"
"HitTv" "HitTv"
"b1T<23>v" "b1T_23v"
"b1T<22>v" "b1T_22v"
"b1T<21>v" "b1T_21v"
"b1T<20>v" "b1T_20v"
"b1T<19>v" "b1T_19v"
"b1T<18>v" "b1T_18v"
"b1T<17>v" "b1T_17v"
"b1T<16>v" "b1T_16v"
"b1T<15>v" "b1T_15v"
"b1T<14>v" "b1T_14v"
"b1T<13>v" "b1T_13v"
"b1T<12>v" "b1T_12v"
"b1T<11>v" "b1T_11v"
"b1T<10>v" "b1T_10v"
"b1T<9>v" "b1T_9v"
"b1T<8>v" "b1T_8v"
"b1T<7>v" "b1T_7v"
"b1T<6>v" "b1T_6v"
"b1T<5>v" "b1T_5v"
"b1T<4>v" "b1T_4v"
"b1T<3>v" "b1T_3v"
"b1T<2>v" "b1T_2v"
"b1T<1>v" "b1T_1v"
"b1T<0>v" "b1T_0v"
"gnd!v" "0v"
"vdd!v" "vdd!v"
"vcc!v" "vcc!v"
"vddd!v" "vddd!v"
