HEADER
"PSFversion" "1.00"
"I2n I0n" "Compare_DR"
"y0<1>v" ":1v"
"y0<0>v" ":2v"
"y1<1>v" ":3v"
"y1<0>v" ":4v"
"a0<1>v" ":5v"
"a0<0>v" ":6v"
"a1<1>v" ":7v"
"a1<0>v" ":8v"
"b0<1>v" ":9v"
"b0<0>v" ":10v"
"b1<1>v" ":11v"
"b1<0>v" ":12v"
