HEADER
"PSFversion" "1.00"
"Bv" "Bv"
"Av" "Av"
"GNDv" "GNDv"
"Yv" "Yv"
"or_pd_psv" "or_pd_psv"
"VDDv" "VDDv"
