HEADER
"PSFversion" "1.00"
"Bv" "Bv"
"Yv" "Yv"
"AnorBv" "AnorBv"
"Av" "Av"
