HEADER
"PSFversion" "1.00"
"vddd!v" "vddd!v"
"vdda!v" "vdda!v"
"gndd!v" "gndd!v"
"gnda!v" "gnda!v"
"gnd!v" "0v"
"vdd!v" "vdd!v"
