HEADER
"PSFversion" "1.00"
"M4n M5n M8n M7n M9n M3n" "NCSU_TechLib_FreePDK15_nfet_spectre"
"M10n M6n M2n M1n" "NCSU_TechLib_FreePDK15_pfet_spectre"
"I4n I5n" "inv_en"
"I6n" "inv_1xp"
"CLKv" ":1v"
"Dv" ":2v"
"GNDHv" ":3v"
"GNDLv" ":4v"
"Qv" ":5v"
"VDDHv" ":6v"
"VDDLv" ":7v"
"~CLKv" ":8v"
