HEADER
"PSFversion" "1.00"
"WData<15>v" "WData_15v"
"WData<14>v" "WData_14v"
"WData<13>v" "WData_13v"
"WData<12>v" "WData_12v"
"WData<11>v" "WData_11v"
"WData<10>v" "WData_10v"
"WData<9>v" "WData_9v"
"WData<8>v" "WData_8v"
"WData<7>v" "WData_7v"
"WData<6>v" "WData_6v"
"WData<5>v" "WData_5v"
"WData<4>v" "WData_4v"
"WData<3>v" "WData_3v"
"WData<2>v" "WData_2v"
"WData<1>v" "WData_1v"
"WData<0>v" "WData_0v"
"WRW_Ack3v" "WRW_Ack3v"
"WA_Ack2<5>v" "WA_Ack2_5v"
"WA_Ack2<4>v" "WA_Ack2_4v"
"WA_Ack2<3>v" "WA_Ack2_3v"
"WA_Ack2<2>v" "WA_Ack2_2v"
"WA_Ack2<1>v" "WA_Ack2_1v"
"WA_Ack2<0>v" "WA_Ack2_0v"
"net0670<0>v" "net0670_0v"
"net0670<1>v" "net0670_1v"
"net0670<2>v" "net0670_2v"
"net0670<3>v" "net0670_3v"
"net0670<4>v" "net0670_4v"
"net0646<0>v" "net0646_0v"
"net0646<1>v" "net0646_1v"
"net0646<2>v" "net0646_2v"
"net0646<3>v" "net0646_3v"
"net0646<4>v" "net0646_4v"
"net0646<5>v" "net0646_5v"
"net0646<6>v" "net0646_6v"
"net0646<7>v" "net0646_7v"
"net0646<8>v" "net0646_8v"
"net0646<9>v" "net0646_9v"
"net0646<10>v" "net0646_10v"
"net0646<11>v" "net0646_11v"
"net0646<12>v" "net0646_12v"
"net0646<13>v" "net0646_13v"
"net0646<14>v" "net0646_14v"
"net0646<15>v" "net0646_15v"
"net0646<16>v" "net0646_16v"
"net0646<17>v" "net0646_17v"
"net0646<18>v" "net0646_18v"
"net0646<19>v" "net0646_19v"
"net0646<20>v" "net0646_20v"
"net0646<21>v" "net0646_21v"
"net0646<22>v" "net0646_22v"
"net0646<23>v" "net0646_23v"
"net0646<24>v" "net0646_24v"
"net0646<25>v" "net0646_25v"
"net0646<26>v" "net0646_26v"
"net0646<27>v" "net0646_27v"
"net0646<28>v" "net0646_28v"
"net0646<29>v" "net0646_29v"
"net0646<30>v" "net0646_30v"
"net0646<31>v" "net0646_31v"
"net0238<0>v" "net0238_0v"
"net0238<1>v" "net0238_1v"
"net0238<2>v" "net0238_2v"
"net0238<3>v" "net0238_3v"
"net0206v" "net0206v"
"Read<1>v" "Read_1v"
"net0222<0>v" "net0222_0v"
"net0222<1>v" "net0222_1v"
"net0222<2>v" "net0222_2v"
"net0222<3>v" "net0222_3v"
"WA_Ack1<5>v" "WA_Ack1_5v"
"WA_Ack1<4>v" "WA_Ack1_4v"
"WA_Ack1<3>v" "WA_Ack1_3v"
"WA_Ack1<2>v" "WA_Ack1_2v"
"WA_Ack1<1>v" "WA_Ack1_1v"
"WA_Ack1<0>v" "WA_Ack1_0v"
"net0755<0>v" "net0755_0v"
"net0755<1>v" "net0755_1v"
"net0755<2>v" "net0755_2v"
"net0755<3>v" "net0755_3v"
"net0686<0>v" "net0686_0v"
"net0686<1>v" "net0686_1v"
"Wdata4<11>v" "Wdata4_11v"
"Wdata4<10>v" "Wdata4_10v"
"Wdata4<9>v" "Wdata4_9v"
"Wdata4<8>v" "Wdata4_8v"
"net0282<0>v" "net0282_0v"
"net0282<1>v" "net0282_1v"
"Wdata<7>v" "Wdata_7v"
"Wdata<6>v" "Wdata_6v"
"Wdata<5>v" "Wdata_5v"
"Wdata<4>v" "Wdata_4v"
"net0737<0>v" "net0737_0v"
"net0737<1>v" "net0737_1v"
"net0737<2>v" "net0737_2v"
"net0737<3>v" "net0737_3v"
"net0743<0>v" "net0743_0v"
"net0743<1>v" "net0743_1v"
"net0743<2>v" "net0743_2v"
"net0743<3>v" "net0743_3v"
"net0743<4>v" "net0743_4v"
"net0743<5>v" "net0743_5v"
"net0743<6>v" "net0743_6v"
"net0743<7>v" "net0743_7v"
"net0710<0>v" "net0710_0v"
"net0710<1>v" "net0710_1v"
"net0710<2>v" "net0710_2v"
"net0710<3>v" "net0710_3v"
"net0710<4>v" "net0710_4v"
"net0710<5>v" "net0710_5v"
"net0710<6>v" "net0710_6v"
"net0710<7>v" "net0710_7v"
"net0710<8>v" "net0710_8v"
"net0710<9>v" "net0710_9v"
"net0710<10>v" "net0710_10v"
"net0710<11>v" "net0710_11v"
"net0710<12>v" "net0710_12v"
"net0710<13>v" "net0710_13v"
"net0710<14>v" "net0710_14v"
"net0710<15>v" "net0710_15v"
"net0710<16>v" "net0710_16v"
"net0710<17>v" "net0710_17v"
"net0710<18>v" "net0710_18v"
"net0710<19>v" "net0710_19v"
"net0710<20>v" "net0710_20v"
"net0710<21>v" "net0710_21v"
"net0710<22>v" "net0710_22v"
"net0710<23>v" "net0710_23v"
"net0710<24>v" "net0710_24v"
"net0710<25>v" "net0710_25v"
"net0710<26>v" "net0710_26v"
"net0710<27>v" "net0710_27v"
"net0710<28>v" "net0710_28v"
"net0710<29>v" "net0710_29v"
"net0710<30>v" "net0710_30v"
"net0710<31>v" "net0710_31v"
"Read_RW<1>v" "Read_RW_1v"
"Read_RW<0>v" "Read_RW_0v"
"net0237<0>v" "net0237_0v"
"net0237<1>v" "net0237_1v"
"net0237<2>v" "net0237_2v"
"net0237<3>v" "net0237_3v"
"Wdata3<7>v" "Wdata3_7v"
"Wdata3<6>v" "Wdata3_6v"
"Wdata3<5>v" "Wdata3_5v"
"Wdata3<4>v" "Wdata3_4v"
"net0613<0>v" "net0613_0v"
"net0613<1>v" "net0613_1v"
"net0613<2>v" "net0613_2v"
"net0613<3>v" "net0613_3v"
"net0691<0>v" "net0691_0v"
"net0691<1>v" "net0691_1v"
"net0691<2>v" "net0691_2v"
"net0691<3>v" "net0691_3v"
"net0691<4>v" "net0691_4v"
"net0649<0>v" "net0649_0v"
"net0649<1>v" "net0649_1v"
"net0649<2>v" "net0649_2v"
"net0649<3>v" "net0649_3v"
"net0649<4>v" "net0649_4v"
"net0649<5>v" "net0649_5v"
"net0649<6>v" "net0649_6v"
"net0649<7>v" "net0649_7v"
"net0649<8>v" "net0649_8v"
"net0649<9>v" "net0649_9v"
"net0649<10>v" "net0649_10v"
"net0649<11>v" "net0649_11v"
"net0649<12>v" "net0649_12v"
"net0649<13>v" "net0649_13v"
"net0649<14>v" "net0649_14v"
"net0649<15>v" "net0649_15v"
"net0649<16>v" "net0649_16v"
"net0649<17>v" "net0649_17v"
"net0649<18>v" "net0649_18v"
"net0649<19>v" "net0649_19v"
"net0692<0>v" "net0692_0v"
"net0692<1>v" "net0692_1v"
"net0692<2>v" "net0692_2v"
"net0692<3>v" "net0692_3v"
"net0692<4>v" "net0692_4v"
"net0329<0>v" "net0329_0v"
"net0329<1>v" "net0329_1v"
"net0329<2>v" "net0329_2v"
"net0329<3>v" "net0329_3v"
"net0269<0>v" "net0269_0v"
"net0269<1>v" "net0269_1v"
"net0269<2>v" "net0269_2v"
"net0269<3>v" "net0269_3v"
"net0269<4>v" "net0269_4v"
"net0269<5>v" "net0269_5v"
"net0269<6>v" "net0269_6v"
"net0269<7>v" "net0269_7v"
"net0269<8>v" "net0269_8v"
"net0269<9>v" "net0269_9v"
"net0269<10>v" "net0269_10v"
"net0269<11>v" "net0269_11v"
"net0269<12>v" "net0269_12v"
"net0269<13>v" "net0269_13v"
"net0269<14>v" "net0269_14v"
"net0269<15>v" "net0269_15v"
"net0269<16>v" "net0269_16v"
"net0269<17>v" "net0269_17v"
"net0269<18>v" "net0269_18v"
"net0269<19>v" "net0269_19v"
"net0221<0>v" "net0221_0v"
"net0221<1>v" "net0221_1v"
"net0221<2>v" "net0221_2v"
"net0221<3>v" "net0221_3v"
"net0146v" "net0146v"
"net40<0>v" "net40_0v"
"net40<1>v" "net40_1v"
"net40<2>v" "net40_2v"
"net40<3>v" "net40_3v"
"net40<4>v" "net40_4v"
"net20v" "net20v"
"net0328<0>v" "net0328_0v"
"net0328<1>v" "net0328_1v"
"net0328<2>v" "net0328_2v"
"net0328<3>v" "net0328_3v"
"Wdata4<15>v" "Wdata4_15v"
"Wdata4<14>v" "Wdata4_14v"
"Wdata4<13>v" "Wdata4_13v"
"Wdata4<12>v" "Wdata4_12v"
"net0339<0>v" "net0339_0v"
"net0339<1>v" "net0339_1v"
"net0339<2>v" "net0339_2v"
"net0339<3>v" "net0339_3v"
"net0339<4>v" "net0339_4v"
"net0339<5>v" "net0339_5v"
"net0656<0>v" "net0656_0v"
"net0656<1>v" "net0656_1v"
"net0656<2>v" "net0656_2v"
"net0656<3>v" "net0656_3v"
"net0656<4>v" "net0656_4v"
"net0656<5>v" "net0656_5v"
"net0656<6>v" "net0656_6v"
"net0656<7>v" "net0656_7v"
"net0656<8>v" "net0656_8v"
"net0656<9>v" "net0656_9v"
"net0656<10>v" "net0656_10v"
"net0656<11>v" "net0656_11v"
"net0656<12>v" "net0656_12v"
"net0656<13>v" "net0656_13v"
"net0656<14>v" "net0656_14v"
"net0656<15>v" "net0656_15v"
"net0656<16>v" "net0656_16v"
"net0656<17>v" "net0656_17v"
"net0656<18>v" "net0656_18v"
"net0656<19>v" "net0656_19v"
"net0651<0>v" "net0651_0v"
"net0651<1>v" "net0651_1v"
"net0651<2>v" "net0651_2v"
"net0651<3>v" "net0651_3v"
"net0651<4>v" "net0651_4v"
"net0283<0>v" "net0283_0v"
"net0283<1>v" "net0283_1v"
"net0627<0>v" "net0627_0v"
"net0627<1>v" "net0627_1v"
"net0627<2>v" "net0627_2v"
"net0627<3>v" "net0627_3v"
"Wdata4<31>v" "Wdata4_31v"
"Wdata4<30>v" "Wdata4_30v"
"Wdata4<29>v" "Wdata4_29v"
"Wdata4<28>v" "Wdata4_28v"
"Wdata<3>v" "Wdata_3v"
"Wdata<2>v" "Wdata_2v"
"Wdata<1>v" "Wdata_1v"
"Wdata<0>v" "Wdata_0v"
"Wdata<15>v" "Wdata_15v"
"Wdata<14>v" "Wdata_14v"
"Wdata<13>v" "Wdata_13v"
"Wdata<12>v" "Wdata_12v"
"Wdata<19>v" "Wdata_19v"
"Wdata<18>v" "Wdata_18v"
"Wdata<17>v" "Wdata_17v"
"Wdata<16>v" "Wdata_16v"
"net0678<0>v" "net0678_0v"
"net0678<1>v" "net0678_1v"
"net0216<0>v" "net0216_0v"
"net0216<1>v" "net0216_1v"
"net0216<2>v" "net0216_2v"
"net0216<3>v" "net0216_3v"
"net0216<4>v" "net0216_4v"
"net0216<5>v" "net0216_5v"
"net0216<6>v" "net0216_6v"
"net0216<7>v" "net0216_7v"
"WdBank2<31>v" "WdBank2_31v"
"WdBank2<30>v" "WdBank2_30v"
"WdBank2<29>v" "WdBank2_29v"
"WdBank2<28>v" "WdBank2_28v"
"WdBank2<27>v" "WdBank2_27v"
"WdBank2<26>v" "WdBank2_26v"
"WdBank2<25>v" "WdBank2_25v"
"WdBank2<24>v" "WdBank2_24v"
"WdBank2<23>v" "WdBank2_23v"
"WdBank2<22>v" "WdBank2_22v"
"WdBank2<21>v" "WdBank2_21v"
"WdBank2<20>v" "WdBank2_20v"
"WdBank2<19>v" "WdBank2_19v"
"WdBank2<18>v" "WdBank2_18v"
"WdBank2<17>v" "WdBank2_17v"
"WdBank2<16>v" "WdBank2_16v"
"WdBank2<15>v" "WdBank2_15v"
"WdBank2<14>v" "WdBank2_14v"
"WdBank2<13>v" "WdBank2_13v"
"WdBank2<12>v" "WdBank2_12v"
"WdBank2<11>v" "WdBank2_11v"
"WdBank2<10>v" "WdBank2_10v"
"WdBank2<9>v" "WdBank2_9v"
"WdBank2<8>v" "WdBank2_8v"
"WdBank2<7>v" "WdBank2_7v"
"WdBank2<6>v" "WdBank2_6v"
"WdBank2<5>v" "WdBank2_5v"
"WdBank2<4>v" "WdBank2_4v"
"WdBank2<3>v" "WdBank2_3v"
"WdBank2<2>v" "WdBank2_2v"
"WdBank2<1>v" "WdBank2_1v"
"WdBank2<0>v" "WdBank2_0v"
"net0331<0>v" "net0331_0v"
"net0331<1>v" "net0331_1v"
"net0331<2>v" "net0331_2v"
"net0331<3>v" "net0331_3v"
"net081v" "net081v"
"Wdata2<3>v" "Wdata2_3v"
"Wdata2<2>v" "Wdata2_2v"
"Wdata2<1>v" "Wdata2_1v"
"Wdata2<0>v" "Wdata2_0v"
"Rdata<27>v" "Rdata_27v"
"Rdata<26>v" "Rdata_26v"
"Rdata<25>v" "Rdata_25v"
"Rdata<24>v" "Rdata_24v"
"Wdata4<7>v" "Wdata4_7v"
"Wdata4<6>v" "Wdata4_6v"
"Wdata4<5>v" "Wdata4_5v"
"Wdata4<4>v" "Wdata4_4v"
"net0640<0>v" "net0640_0v"
"net0640<1>v" "net0640_1v"
"net0640<2>v" "net0640_2v"
"net0640<3>v" "net0640_3v"
"net0640<4>v" "net0640_4v"
"net0640<5>v" "net0640_5v"
"net0640<6>v" "net0640_6v"
"net0640<7>v" "net0640_7v"
"net0640<8>v" "net0640_8v"
"net0640<9>v" "net0640_9v"
"net0640<10>v" "net0640_10v"
"net0640<11>v" "net0640_11v"
"net0640<12>v" "net0640_12v"
"net0640<13>v" "net0640_13v"
"net0640<14>v" "net0640_14v"
"net0640<15>v" "net0640_15v"
"net0640<16>v" "net0640_16v"
"net0640<17>v" "net0640_17v"
"net0640<18>v" "net0640_18v"
"net0640<19>v" "net0640_19v"
"net0640<20>v" "net0640_20v"
"net0640<21>v" "net0640_21v"
"net0640<22>v" "net0640_22v"
"net0640<23>v" "net0640_23v"
"net0640<24>v" "net0640_24v"
"net0640<25>v" "net0640_25v"
"net0640<26>v" "net0640_26v"
"net0640<27>v" "net0640_27v"
"net0640<28>v" "net0640_28v"
"net0640<29>v" "net0640_29v"
"net0640<30>v" "net0640_30v"
"net0640<31>v" "net0640_31v"
"net0601<0>v" "net0601_0v"
"net0601<1>v" "net0601_1v"
"net0601<2>v" "net0601_2v"
"net0601<3>v" "net0601_3v"
"net0645<0>v" "net0645_0v"
"net0645<1>v" "net0645_1v"
"net0645<2>v" "net0645_2v"
"net0645<3>v" "net0645_3v"
"net0645<4>v" "net0645_4v"
"net0645<5>v" "net0645_5v"
"net0645<6>v" "net0645_6v"
"net0645<7>v" "net0645_7v"
"net0284<0>v" "net0284_0v"
"net0284<1>v" "net0284_1v"
"net0336<0>v" "net0336_0v"
"net0336<1>v" "net0336_1v"
"net0336<2>v" "net0336_2v"
"net0336<3>v" "net0336_3v"
"net0652<0>v" "net0652_0v"
"net0652<1>v" "net0652_1v"
"net0652<2>v" "net0652_2v"
"net0652<3>v" "net0652_3v"
"net0652<4>v" "net0652_4v"
"net0682<0>v" "net0682_0v"
"net0682<1>v" "net0682_1v"
"net0647<0>v" "net0647_0v"
"net0647<1>v" "net0647_1v"
"net0647<2>v" "net0647_2v"
"net0647<3>v" "net0647_3v"
"net0647<4>v" "net0647_4v"
"net0647<5>v" "net0647_5v"
"net0647<6>v" "net0647_6v"
"net0647<7>v" "net0647_7v"
"Rdata3<31>v" "Rdata3_31v"
"Rdata3<30>v" "Rdata3_30v"
"Rdata3<29>v" "Rdata3_29v"
"Rdata3<28>v" "Rdata3_28v"
"Rdata3<27>v" "Rdata3_27v"
"Rdata3<26>v" "Rdata3_26v"
"Rdata3<25>v" "Rdata3_25v"
"Rdata3<24>v" "Rdata3_24v"
"Rdata3<23>v" "Rdata3_23v"
"Rdata3<22>v" "Rdata3_22v"
"Rdata3<21>v" "Rdata3_21v"
"Rdata3<20>v" "Rdata3_20v"
"Rdata3<19>v" "Rdata3_19v"
"Rdata3<18>v" "Rdata3_18v"
"Rdata3<17>v" "Rdata3_17v"
"Rdata3<16>v" "Rdata3_16v"
"Rdata3<15>v" "Rdata3_15v"
"Rdata3<14>v" "Rdata3_14v"
"Rdata3<13>v" "Rdata3_13v"
"Rdata3<12>v" "Rdata3_12v"
"Rdata3<11>v" "Rdata3_11v"
"Rdata3<10>v" "Rdata3_10v"
"Rdata3<9>v" "Rdata3_9v"
"Rdata3<8>v" "Rdata3_8v"
"Rdata3<7>v" "Rdata3_7v"
"Rdata3<6>v" "Rdata3_6v"
"Rdata3<5>v" "Rdata3_5v"
"Rdata3<4>v" "Rdata3_4v"
"Rdata3<3>v" "Rdata3_3v"
"Rdata3<2>v" "Rdata3_2v"
"Rdata3<1>v" "Rdata3_1v"
"Rdata3<0>v" "Rdata3_0v"
"net0217<0>v" "net0217_0v"
"net0217<1>v" "net0217_1v"
"net0217<2>v" "net0217_2v"
"net0217<3>v" "net0217_3v"
"net0653<0>v" "net0653_0v"
"net0653<1>v" "net0653_1v"
"net0752<0>v" "net0752_0v"
"net0752<1>v" "net0752_1v"
"net0752<2>v" "net0752_2v"
"net0752<3>v" "net0752_3v"
"net0752<4>v" "net0752_4v"
"net0752<5>v" "net0752_5v"
"net0752<6>v" "net0752_6v"
"net0752<7>v" "net0752_7v"
"net0758<0>v" "net0758_0v"
"net0758<1>v" "net0758_1v"
"net0758<2>v" "net0758_2v"
"net0758<3>v" "net0758_3v"
"net054v" "net054v"
"net048v" "net048v"
"net0749<0>v" "net0749_0v"
"net0749<1>v" "net0749_1v"
"net0749<2>v" "net0749_2v"
"net0749<3>v" "net0749_3v"
"Bank1WAck<7>v" "Bank1WAck_7v"
"Bank1WAck<6>v" "Bank1WAck_6v"
"Bank1WAck<5>v" "Bank1WAck_5v"
"Bank1WAck<4>v" "Bank1WAck_4v"
"Bank1WAck<3>v" "Bank1WAck_3v"
"Bank1WAck<2>v" "Bank1WAck_2v"
"Bank1WAck<1>v" "Bank1WAck_1v"
"Bank1WAck<0>v" "Bank1WAck_0v"
"Wdata4<23>v" "Wdata4_23v"
"Wdata4<22>v" "Wdata4_22v"
"Wdata4<21>v" "Wdata4_21v"
"Wdata4<20>v" "Wdata4_20v"
"Wdata3<27>v" "Wdata3_27v"
"Wdata3<26>v" "Wdata3_26v"
"Wdata3<25>v" "Wdata3_25v"
"Wdata3<24>v" "Wdata3_24v"
"Wdata4<19>v" "Wdata4_19v"
"Wdata4<18>v" "Wdata4_18v"
"Wdata4<17>v" "Wdata4_17v"
"Wdata4<16>v" "Wdata4_16v"
"net0607<0>v" "net0607_0v"
"net0607<1>v" "net0607_1v"
"net0607<2>v" "net0607_2v"
"net0607<3>v" "net0607_3v"
"RdBank1Ack<7>v" "RdBank1Ack_7v"
"RdBank1Ack<6>v" "RdBank1Ack_6v"
"RdBank1Ack<5>v" "RdBank1Ack_5v"
"RdBank1Ack<4>v" "RdBank1Ack_4v"
"RdBank1Ack<3>v" "RdBank1Ack_3v"
"RdBank1Ack<2>v" "RdBank1Ack_2v"
"RdBank1Ack<1>v" "RdBank1Ack_1v"
"RdBank1Ack<0>v" "RdBank1Ack_0v"
"Wdata3<19>v" "Wdata3_19v"
"Wdata3<18>v" "Wdata3_18v"
"Wdata3<17>v" "Wdata3_17v"
"Wdata3<16>v" "Wdata3_16v"
"net0604<0>v" "net0604_0v"
"net0604<1>v" "net0604_1v"
"net0604<2>v" "net0604_2v"
"net0604<3>v" "net0604_3v"
"net0701<0>v" "net0701_0v"
"net0701<1>v" "net0701_1v"
"net0701<2>v" "net0701_2v"
"net0701<3>v" "net0701_3v"
"net0701<4>v" "net0701_4v"
"net0701<5>v" "net0701_5v"
"net0701<6>v" "net0701_6v"
"net0701<7>v" "net0701_7v"
"net0701<8>v" "net0701_8v"
"net0701<9>v" "net0701_9v"
"net0701<10>v" "net0701_10v"
"net0701<11>v" "net0701_11v"
"net0701<12>v" "net0701_12v"
"net0701<13>v" "net0701_13v"
"net0701<14>v" "net0701_14v"
"net0701<15>v" "net0701_15v"
"net0701<16>v" "net0701_16v"
"net0701<17>v" "net0701_17v"
"net0701<18>v" "net0701_18v"
"net0701<19>v" "net0701_19v"
"net0391<0>v" "net0391_0v"
"net0391<1>v" "net0391_1v"
"net0391<2>v" "net0391_2v"
"net0391<3>v" "net0391_3v"
"net0391<4>v" "net0391_4v"
"net0391<5>v" "net0391_5v"
"net0391<6>v" "net0391_6v"
"net0391<7>v" "net0391_7v"
"net0667<0>v" "net0667_0v"
"net0667<1>v" "net0667_1v"
"net0667<2>v" "net0667_2v"
"net0667<3>v" "net0667_3v"
"net0667<4>v" "net0667_4v"
"net0667<5>v" "net0667_5v"
"net0667<6>v" "net0667_6v"
"net0667<7>v" "net0667_7v"
"net0667<8>v" "net0667_8v"
"net0667<9>v" "net0667_9v"
"net0667<10>v" "net0667_10v"
"net0667<11>v" "net0667_11v"
"net0667<12>v" "net0667_12v"
"net0667<13>v" "net0667_13v"
"net0667<14>v" "net0667_14v"
"net0667<15>v" "net0667_15v"
"net0667<16>v" "net0667_16v"
"net0667<17>v" "net0667_17v"
"net0667<18>v" "net0667_18v"
"net0667<19>v" "net0667_19v"
"net0267<0>v" "net0267_0v"
"net0267<1>v" "net0267_1v"
"net0267<2>v" "net0267_2v"
"net0267<3>v" "net0267_3v"
"net0267<4>v" "net0267_4v"
"net0267<5>v" "net0267_5v"
"net0267<6>v" "net0267_6v"
"net0267<7>v" "net0267_7v"
"net0700<0>v" "net0700_0v"
"net0700<1>v" "net0700_1v"
"net0700<2>v" "net0700_2v"
"net0700<3>v" "net0700_3v"
"net0700<4>v" "net0700_4v"
"net0700<5>v" "net0700_5v"
"net0700<6>v" "net0700_6v"
"net0700<7>v" "net0700_7v"
"net0700<8>v" "net0700_8v"
"net0700<9>v" "net0700_9v"
"net0700<10>v" "net0700_10v"
"net0700<11>v" "net0700_11v"
"net0700<12>v" "net0700_12v"
"net0700<13>v" "net0700_13v"
"net0700<14>v" "net0700_14v"
"net0700<15>v" "net0700_15v"
"net0700<16>v" "net0700_16v"
"net0700<17>v" "net0700_17v"
"net0700<18>v" "net0700_18v"
"net0700<19>v" "net0700_19v"
"net0231<0>v" "net0231_0v"
"net0231<1>v" "net0231_1v"
"net0231<2>v" "net0231_2v"
"net0231<3>v" "net0231_3v"
"net0354v" "net0354v"
"net0757<0>v" "net0757_0v"
"net0757<1>v" "net0757_1v"
"net0757<2>v" "net0757_2v"
"net0757<3>v" "net0757_3v"
"net0321<0>v" "net0321_0v"
"net0321<1>v" "net0321_1v"
"net0321<2>v" "net0321_2v"
"net0321<3>v" "net0321_3v"
"net0321<4>v" "net0321_4v"
"net0321<5>v" "net0321_5v"
"net0321<6>v" "net0321_6v"
"net0321<7>v" "net0321_7v"
"net0215<0>v" "net0215_0v"
"net0215<1>v" "net0215_1v"
"net0215<2>v" "net0215_2v"
"net0215<3>v" "net0215_3v"
"Rdata2<31>v" "Rdata2_31v"
"Rdata2<30>v" "Rdata2_30v"
"Rdata2<29>v" "Rdata2_29v"
"Rdata2<28>v" "Rdata2_28v"
"Rdata2<27>v" "Rdata2_27v"
"Rdata2<26>v" "Rdata2_26v"
"Rdata2<25>v" "Rdata2_25v"
"Rdata2<24>v" "Rdata2_24v"
"Rdata2<23>v" "Rdata2_23v"
"Rdata2<22>v" "Rdata2_22v"
"Rdata2<21>v" "Rdata2_21v"
"Rdata2<20>v" "Rdata2_20v"
"Rdata2<19>v" "Rdata2_19v"
"Rdata2<18>v" "Rdata2_18v"
"Rdata2<17>v" "Rdata2_17v"
"Rdata2<16>v" "Rdata2_16v"
"Rdata2<15>v" "Rdata2_15v"
"Rdata2<14>v" "Rdata2_14v"
"Rdata2<13>v" "Rdata2_13v"
"Rdata2<12>v" "Rdata2_12v"
"Rdata2<11>v" "Rdata2_11v"
"Rdata2<10>v" "Rdata2_10v"
"Rdata2<9>v" "Rdata2_9v"
"Rdata2<8>v" "Rdata2_8v"
"Rdata2<7>v" "Rdata2_7v"
"Rdata2<6>v" "Rdata2_6v"
"Rdata2<5>v" "Rdata2_5v"
"Rdata2<4>v" "Rdata2_4v"
"Rdata2<3>v" "Rdata2_3v"
"Rdata2<2>v" "Rdata2_2v"
"Rdata2<1>v" "Rdata2_1v"
"Rdata2<0>v" "Rdata2_0v"
"net41<0>v" "net41_0v"
"net41<1>v" "net41_1v"
"net0609<0>v" "net0609_0v"
"net0609<1>v" "net0609_1v"
"net0609<2>v" "net0609_2v"
"net0609<3>v" "net0609_3v"
"net0615<0>v" "net0615_0v"
"net0615<1>v" "net0615_1v"
"net0615<2>v" "net0615_2v"
"net0615<3>v" "net0615_3v"
"net0615<4>v" "net0615_4v"
"net0615<5>v" "net0615_5v"
"net0615<6>v" "net0615_6v"
"net0615<7>v" "net0615_7v"
"net0629<0>v" "net0629_0v"
"net0629<1>v" "net0629_1v"
"net0629<2>v" "net0629_2v"
"net0629<3>v" "net0629_3v"
"net0223<0>v" "net0223_0v"
"net0223<1>v" "net0223_1v"
"net0223<2>v" "net0223_2v"
"net0223<3>v" "net0223_3v"
"net0703<0>v" "net0703_0v"
"net0703<1>v" "net0703_1v"
"net0703<2>v" "net0703_2v"
"net0703<3>v" "net0703_3v"
"net0703<4>v" "net0703_4v"
"net0703<5>v" "net0703_5v"
"net0703<6>v" "net0703_6v"
"net0703<7>v" "net0703_7v"
"net0702<0>v" "net0702_0v"
"net0702<1>v" "net0702_1v"
"net0702<2>v" "net0702_2v"
"net0702<3>v" "net0702_3v"
"net0702<4>v" "net0702_4v"
"net0702<5>v" "net0702_5v"
"net0702<6>v" "net0702_6v"
"net0702<7>v" "net0702_7v"
"net0702<8>v" "net0702_8v"
"net0702<9>v" "net0702_9v"
"net0702<10>v" "net0702_10v"
"net0702<11>v" "net0702_11v"
"net0702<12>v" "net0702_12v"
"net0702<13>v" "net0702_13v"
"net0702<14>v" "net0702_14v"
"net0702<15>v" "net0702_15v"
"net0702<16>v" "net0702_16v"
"net0702<17>v" "net0702_17v"
"net0702<18>v" "net0702_18v"
"net0702<19>v" "net0702_19v"
"net0697<0>v" "net0697_0v"
"net0697<1>v" "net0697_1v"
"net0697<2>v" "net0697_2v"
"net0697<3>v" "net0697_3v"
"net0697<4>v" "net0697_4v"
"net0697<5>v" "net0697_5v"
"net0697<6>v" "net0697_6v"
"net0697<7>v" "net0697_7v"
"net0697<8>v" "net0697_8v"
"net0697<9>v" "net0697_9v"
"net0697<10>v" "net0697_10v"
"net0697<11>v" "net0697_11v"
"net0697<12>v" "net0697_12v"
"net0697<13>v" "net0697_13v"
"net0697<14>v" "net0697_14v"
"net0697<15>v" "net0697_15v"
"net0697<16>v" "net0697_16v"
"net0697<17>v" "net0697_17v"
"net0697<18>v" "net0697_18v"
"net0697<19>v" "net0697_19v"
"net0760<0>v" "net0760_0v"
"net0760<1>v" "net0760_1v"
"net0760<2>v" "net0760_2v"
"net0760<3>v" "net0760_3v"
"net0730<0>v" "net0730_0v"
"net0730<1>v" "net0730_1v"
"net0730<2>v" "net0730_2v"
"net0730<3>v" "net0730_3v"
"net0709<0>v" "net0709_0v"
"net0709<1>v" "net0709_1v"
"net0709<2>v" "net0709_2v"
"net0709<3>v" "net0709_3v"
"net0709<4>v" "net0709_4v"
"net0709<5>v" "net0709_5v"
"net0709<6>v" "net0709_6v"
"net0709<7>v" "net0709_7v"
"net0759<0>v" "net0759_0v"
"net0759<1>v" "net0759_1v"
"net0759<2>v" "net0759_2v"
"net0759<3>v" "net0759_3v"
"net0711<0>v" "net0711_0v"
"net0711<1>v" "net0711_1v"
"net0711<2>v" "net0711_2v"
"net0711<3>v" "net0711_3v"
"net0711<4>v" "net0711_4v"
"net0711<5>v" "net0711_5v"
"net0711<6>v" "net0711_6v"
"net0711<7>v" "net0711_7v"
"net0661<0>v" "net0661_0v"
"net0661<1>v" "net0661_1v"
"net0661<2>v" "net0661_2v"
"net0661<3>v" "net0661_3v"
"net0661<4>v" "net0661_4v"
"net0661<5>v" "net0661_5v"
"net0661<6>v" "net0661_6v"
"net0661<7>v" "net0661_7v"
"net0661<8>v" "net0661_8v"
"net0661<9>v" "net0661_9v"
"net0661<10>v" "net0661_10v"
"net0661<11>v" "net0661_11v"
"net0661<12>v" "net0661_12v"
"net0661<13>v" "net0661_13v"
"net0661<14>v" "net0661_14v"
"net0661<15>v" "net0661_15v"
"net0661<16>v" "net0661_16v"
"net0661<17>v" "net0661_17v"
"net0661<18>v" "net0661_18v"
"net0661<19>v" "net0661_19v"
"net0688<0>v" "net0688_0v"
"net0688<1>v" "net0688_1v"
"net0688<2>v" "net0688_2v"
"net0688<3>v" "net0688_3v"
"net0688<4>v" "net0688_4v"
"net080v" "net080v"
"net019v" "net019v"
"net0261<0>v" "net0261_0v"
"net0261<1>v" "net0261_1v"
"net0261<2>v" "net0261_2v"
"net0261<3>v" "net0261_3v"
"net0261<4>v" "net0261_4v"
"net0261<5>v" "net0261_5v"
"net0261<6>v" "net0261_6v"
"net0261<7>v" "net0261_7v"
"RData<63>v" "RData_63v"
"RData<62>v" "RData_62v"
"RData<61>v" "RData_61v"
"RData<60>v" "RData_60v"
"RData<59>v" "RData_59v"
"RData<58>v" "RData_58v"
"RData<57>v" "RData_57v"
"RData<56>v" "RData_56v"
"RData<55>v" "RData_55v"
"RData<54>v" "RData_54v"
"RData<53>v" "RData_53v"
"RData<52>v" "RData_52v"
"RData<51>v" "RData_51v"
"RData<50>v" "RData_50v"
"RData<49>v" "RData_49v"
"RData<48>v" "RData_48v"
"net0687<0>v" "net0687_0v"
"net0687<1>v" "net0687_1v"
"net0687<2>v" "net0687_2v"
"net0687<3>v" "net0687_3v"
"net0687<4>v" "net0687_4v"
"Rdata<31>v" "Rdata_31v"
"Rdata<30>v" "Rdata_30v"
"Rdata<29>v" "Rdata_29v"
"Rdata<28>v" "Rdata_28v"
"Rdata<23>v" "Rdata_23v"
"Rdata<22>v" "Rdata_22v"
"Rdata<21>v" "Rdata_21v"
"Rdata<20>v" "Rdata_20v"
"Rdata<19>v" "Rdata_19v"
"Rdata<18>v" "Rdata_18v"
"Rdata<17>v" "Rdata_17v"
"Rdata<16>v" "Rdata_16v"
"Rdata<15>v" "Rdata_15v"
"Rdata<14>v" "Rdata_14v"
"Rdata<13>v" "Rdata_13v"
"Rdata<12>v" "Rdata_12v"
"Rdata<11>v" "Rdata_11v"
"Rdata<10>v" "Rdata_10v"
"Rdata<9>v" "Rdata_9v"
"Rdata<8>v" "Rdata_8v"
"Rdata<7>v" "Rdata_7v"
"Rdata<6>v" "Rdata_6v"
"Rdata<5>v" "Rdata_5v"
"Rdata<4>v" "Rdata_4v"
"Rdata<3>v" "Rdata_3v"
"Rdata<2>v" "Rdata_2v"
"Rdata<1>v" "Rdata_1v"
"Rdata<0>v" "Rdata_0v"
"net0684<0>v" "net0684_0v"
"net0684<1>v" "net0684_1v"
"net0674<0>v" "net0674_0v"
"net0674<1>v" "net0674_1v"
"net0674<2>v" "net0674_2v"
"net0674<3>v" "net0674_3v"
"net0674<4>v" "net0674_4v"
"net0674<5>v" "net0674_5v"
"net0674<6>v" "net0674_6v"
"net0674<7>v" "net0674_7v"
"net0674<8>v" "net0674_8v"
"net0674<9>v" "net0674_9v"
"net0674<10>v" "net0674_10v"
"net0674<11>v" "net0674_11v"
"net0674<12>v" "net0674_12v"
"net0674<13>v" "net0674_13v"
"net0674<14>v" "net0674_14v"
"net0674<15>v" "net0674_15v"
"net0674<16>v" "net0674_16v"
"net0674<17>v" "net0674_17v"
"net0674<18>v" "net0674_18v"
"net0674<19>v" "net0674_19v"
"net0699<0>v" "net0699_0v"
"net0699<1>v" "net0699_1v"
"net0699<2>v" "net0699_2v"
"net0699<3>v" "net0699_3v"
"net0699<4>v" "net0699_4v"
"net0699<5>v" "net0699_5v"
"net0699<6>v" "net0699_6v"
"net0699<7>v" "net0699_7v"
"net0699<8>v" "net0699_8v"
"net0699<9>v" "net0699_9v"
"net0699<10>v" "net0699_10v"
"net0699<11>v" "net0699_11v"
"net0699<12>v" "net0699_12v"
"net0699<13>v" "net0699_13v"
"net0699<14>v" "net0699_14v"
"net0699<15>v" "net0699_15v"
"net0699<16>v" "net0699_16v"
"net0699<17>v" "net0699_17v"
"net0699<18>v" "net0699_18v"
"net0699<19>v" "net0699_19v"
"net0689<0>v" "net0689_0v"
"net0689<1>v" "net0689_1v"
"net0689<2>v" "net0689_2v"
"net0689<3>v" "net0689_3v"
"net0689<4>v" "net0689_4v"
"net0698<0>v" "net0698_0v"
"net0698<1>v" "net0698_1v"
"net0698<2>v" "net0698_2v"
"net0698<3>v" "net0698_3v"
"net0698<4>v" "net0698_4v"
"net0698<5>v" "net0698_5v"
"net0698<6>v" "net0698_6v"
"net0698<7>v" "net0698_7v"
"net0698<8>v" "net0698_8v"
"net0698<9>v" "net0698_9v"
"net0698<10>v" "net0698_10v"
"net0698<11>v" "net0698_11v"
"net0698<12>v" "net0698_12v"
"net0698<13>v" "net0698_13v"
"net0698<14>v" "net0698_14v"
"net0698<15>v" "net0698_15v"
"net0698<16>v" "net0698_16v"
"net0698<17>v" "net0698_17v"
"net0698<18>v" "net0698_18v"
"net0698<19>v" "net0698_19v"
"net0623<0>v" "net0623_0v"
"net0623<1>v" "net0623_1v"
"net0623<2>v" "net0623_2v"
"net0623<3>v" "net0623_3v"
"WriteEnv" "WriteEnv"
"net0599<0>v" "net0599_0v"
"net0599<1>v" "net0599_1v"
"net0599<2>v" "net0599_2v"
"net0599<3>v" "net0599_3v"
"net0654<0>v" "net0654_0v"
"net0654<1>v" "net0654_1v"
"Wdata4<3>v" "Wdata4_3v"
"Wdata4<2>v" "Wdata4_2v"
"Wdata4<1>v" "Wdata4_1v"
"Wdata4<0>v" "Wdata4_0v"
"net19v" "net19v"
"net0608<0>v" "net0608_0v"
"net0608<1>v" "net0608_1v"
"net0608<2>v" "net0608_2v"
"net0608<3>v" "net0608_3v"
"net0597<0>v" "net0597_0v"
"net0597<1>v" "net0597_1v"
"net0597<2>v" "net0597_2v"
"net0597<3>v" "net0597_3v"
"net0597<4>v" "net0597_4v"
"net0597<5>v" "net0597_5v"
"net0597<6>v" "net0597_6v"
"net0597<7>v" "net0597_7v"
"net0663<0>v" "net0663_0v"
"net0663<1>v" "net0663_1v"
"net0658<0>v" "net0658_0v"
"net0658<1>v" "net0658_1v"
"net0658<2>v" "net0658_2v"
"net0658<3>v" "net0658_3v"
"net0658<4>v" "net0658_4v"
"net0707<0>v" "net0707_0v"
"net0707<1>v" "net0707_1v"
"net0707<2>v" "net0707_2v"
"net0707<3>v" "net0707_3v"
"net0707<4>v" "net0707_4v"
"net0707<5>v" "net0707_5v"
"net0707<6>v" "net0707_6v"
"net0707<7>v" "net0707_7v"
"net0228<0>v" "net0228_0v"
"net0228<1>v" "net0228_1v"
"net0228<2>v" "net0228_2v"
"net0228<3>v" "net0228_3v"
"net0638<0>v" "net0638_0v"
"net0638<1>v" "net0638_1v"
"net0638<2>v" "net0638_2v"
"net0638<3>v" "net0638_3v"
"net0638<4>v" "net0638_4v"
"net0638<5>v" "net0638_5v"
"net0638<6>v" "net0638_6v"
"net0638<7>v" "net0638_7v"
"net0638<8>v" "net0638_8v"
"net0638<9>v" "net0638_9v"
"net0638<10>v" "net0638_10v"
"net0638<11>v" "net0638_11v"
"net0638<12>v" "net0638_12v"
"net0638<13>v" "net0638_13v"
"net0638<14>v" "net0638_14v"
"net0638<15>v" "net0638_15v"
"net0638<16>v" "net0638_16v"
"net0638<17>v" "net0638_17v"
"net0638<18>v" "net0638_18v"
"net0638<19>v" "net0638_19v"
"net0638<20>v" "net0638_20v"
"net0638<21>v" "net0638_21v"
"net0638<22>v" "net0638_22v"
"net0638<23>v" "net0638_23v"
"net0638<24>v" "net0638_24v"
"net0638<25>v" "net0638_25v"
"net0638<26>v" "net0638_26v"
"net0638<27>v" "net0638_27v"
"net0638<28>v" "net0638_28v"
"net0638<29>v" "net0638_29v"
"net0638<30>v" "net0638_30v"
"net0638<31>v" "net0638_31v"
"net0253<0>v" "net0253_0v"
"net0253<1>v" "net0253_1v"
"net0253<2>v" "net0253_2v"
"net0253<3>v" "net0253_3v"
"net0253<4>v" "net0253_4v"
"net0303<0>v" "net0303_0v"
"net0303<1>v" "net0303_1v"
"net0303<2>v" "net0303_2v"
"net0303<3>v" "net0303_3v"
"net0303<4>v" "net0303_4v"
"net0303<5>v" "net0303_5v"
"net0303<6>v" "net0303_6v"
"net0303<7>v" "net0303_7v"
"net0230<0>v" "net0230_0v"
"net0230<1>v" "net0230_1v"
"net0230<2>v" "net0230_2v"
"net0230<3>v" "net0230_3v"
"net0695<0>v" "net0695_0v"
"net0695<1>v" "net0695_1v"
"net0695<2>v" "net0695_2v"
"net0695<3>v" "net0695_3v"
"net0695<4>v" "net0695_4v"
"net0695<5>v" "net0695_5v"
"net0695<6>v" "net0695_6v"
"net0695<7>v" "net0695_7v"
"net0695<8>v" "net0695_8v"
"net0695<9>v" "net0695_9v"
"net0695<10>v" "net0695_10v"
"net0695<11>v" "net0695_11v"
"net0695<12>v" "net0695_12v"
"net0695<13>v" "net0695_13v"
"net0695<14>v" "net0695_14v"
"net0695<15>v" "net0695_15v"
"net0695<16>v" "net0695_16v"
"net0695<17>v" "net0695_17v"
"net0695<18>v" "net0695_18v"
"net0695<19>v" "net0695_19v"
"net0690<0>v" "net0690_0v"
"net0690<1>v" "net0690_1v"
"net0690<2>v" "net0690_2v"
"net0690<3>v" "net0690_3v"
"net0690<4>v" "net0690_4v"
"net0719<0>v" "net0719_0v"
"net0719<1>v" "net0719_1v"
"net0719<2>v" "net0719_2v"
"net0719<3>v" "net0719_3v"
"net0719<4>v" "net0719_4v"
"net0719<5>v" "net0719_5v"
"net0719<6>v" "net0719_6v"
"net0719<7>v" "net0719_7v"
"net0719<8>v" "net0719_8v"
"net0719<9>v" "net0719_9v"
"net0719<10>v" "net0719_10v"
"net0719<11>v" "net0719_11v"
"net0719<12>v" "net0719_12v"
"net0719<13>v" "net0719_13v"
"net0719<14>v" "net0719_14v"
"net0719<15>v" "net0719_15v"
"net0719<16>v" "net0719_16v"
"net0719<17>v" "net0719_17v"
"net0719<18>v" "net0719_18v"
"net0719<19>v" "net0719_19v"
"net021v" "net021v"
"net0770v" "net0770v"
"Write<0>v" "Write_0v"
"net0103v" "net0103v"
"net0748<0>v" "net0748_0v"
"net0748<1>v" "net0748_1v"
"net0748<2>v" "net0748_2v"
"net0748<3>v" "net0748_3v"
"net0326<0>v" "net0326_0v"
"net0326<1>v" "net0326_1v"
"net0326<2>v" "net0326_2v"
"net0326<3>v" "net0326_3v"
"net0289<0>v" "net0289_0v"
"net0289<1>v" "net0289_1v"
"net0289<2>v" "net0289_2v"
"net0289<3>v" "net0289_3v"
"net0289<4>v" "net0289_4v"
"net0734<0>v" "net0734_0v"
"net0734<1>v" "net0734_1v"
"net0734<2>v" "net0734_2v"
"net0734<3>v" "net0734_3v"
"net0734<4>v" "net0734_4v"
"net0734<5>v" "net0734_5v"
"net0734<6>v" "net0734_6v"
"net0734<7>v" "net0734_7v"
"net0254<0>v" "net0254_0v"
"net0254<1>v" "net0254_1v"
"net0659<0>v" "net0659_0v"
"net0659<1>v" "net0659_1v"
"net0352<0>v" "net0352_0v"
"net0352<1>v" "net0352_1v"
"net0352<2>v" "net0352_2v"
"net0352<3>v" "net0352_3v"
"net0352<4>v" "net0352_4v"
"net0352<5>v" "net0352_5v"
"net0352<6>v" "net0352_6v"
"net0352<7>v" "net0352_7v"
"net0338<0>v" "net0338_0v"
"net0338<1>v" "net0338_1v"
"net0338<2>v" "net0338_2v"
"net0338<3>v" "net0338_3v"
"RData<15>v" "RData_15v"
"RData<14>v" "RData_14v"
"RData<13>v" "RData_13v"
"RData<12>v" "RData_12v"
"RData<11>v" "RData_11v"
"RData<10>v" "RData_10v"
"RData<9>v" "RData_9v"
"RData<8>v" "RData_8v"
"RData<7>v" "RData_7v"
"RData<6>v" "RData_6v"
"RData<5>v" "RData_5v"
"RData<4>v" "RData_4v"
"RData<3>v" "RData_3v"
"RData<2>v" "RData_2v"
"RData<1>v" "RData_1v"
"RData<0>v" "RData_0v"
"net0213<0>v" "net0213_0v"
"net0213<1>v" "net0213_1v"
"net0213<2>v" "net0213_2v"
"net0213<3>v" "net0213_3v"
"net0299<0>v" "net0299_0v"
"net0299<1>v" "net0299_1v"
"net0299<2>v" "net0299_2v"
"net0299<3>v" "net0299_3v"
"net0299<4>v" "net0299_4v"
"net0299<5>v" "net0299_5v"
"net0299<6>v" "net0299_6v"
"net0299<7>v" "net0299_7v"
"net0299<8>v" "net0299_8v"
"net0299<9>v" "net0299_9v"
"net0299<10>v" "net0299_10v"
"net0299<11>v" "net0299_11v"
"net0299<12>v" "net0299_12v"
"net0299<13>v" "net0299_13v"
"net0299<14>v" "net0299_14v"
"net0299<15>v" "net0299_15v"
"net0299<16>v" "net0299_16v"
"net0299<17>v" "net0299_17v"
"net0299<18>v" "net0299_18v"
"net0299<19>v" "net0299_19v"
"net0304<0>v" "net0304_0v"
"net0304<1>v" "net0304_1v"
"net0304<2>v" "net0304_2v"
"net0304<3>v" "net0304_3v"
"net0665<0>v" "net0665_0v"
"net0665<1>v" "net0665_1v"
"net0665<2>v" "net0665_2v"
"net0665<3>v" "net0665_3v"
"net0665<4>v" "net0665_4v"