HEADER
"PSFversion" "1.00"
"I0n" "_sub109"
"I3n" "_sub111"
"I4n I2n" "_sub108"
"A<23>v" ":1v"
"A<22>v" ":2v"
"A<21>v" ":3v"
"A<20>v" ":4v"
"A<19>v" ":5v"
"A<18>v" ":6v"
"A<17>v" ":7v"
"A<16>v" ":8v"
"A<15>v" ":9v"
"A<14>v" ":10v"
"A<13>v" ":11v"
"A<12>v" ":12v"
"A<11>v" ":13v"
"A<10>v" ":14v"
"A<9>v" ":15v"
"A<8>v" ":16v"
"A<7>v" ":17v"
"A<6>v" ":18v"
"A<5>v" ":19v"
"A<4>v" ":20v"
"A<3>v" ":21v"
"A<2>v" ":22v"
"A<1>v" ":23v"
"A<0>v" ":24v"
"Ack<5>v" ":25v"
"Ack<4>v" ":26v"
"Ack<3>v" ":27v"
"Ack<2>v" ":28v"
"Ack<1>v" ":29v"
"Ack<0>v" ":30v"
"In_6of24<23>v" ":31v"
"In_6of24<22>v" ":32v"
"In_6of24<21>v" ":33v"
"In_6of24<20>v" ":34v"
"In_6of24<19>v" ":35v"
"In_6of24<18>v" ":36v"
"In_6of24<17>v" ":37v"
"In_6of24<16>v" ":38v"
"In_6of24<15>v" ":39v"
"In_6of24<14>v" ":40v"
"In_6of24<13>v" ":41v"
"In_6of24<12>v" ":42v"
"In_6of24<11>v" ":43v"
"In_6of24<10>v" ":44v"
"In_6of24<9>v" ":45v"
"In_6of24<8>v" ":46v"
"In_6of24<7>v" ":47v"
"In_6of24<6>v" ":48v"
"In_6of24<5>v" ":49v"
"In_6of24<4>v" ":50v"
"In_6of24<3>v" ":51v"
"In_6of24<2>v" ":52v"
"In_6of24<1>v" ":53v"
"In_6of24<0>v" ":54v"
"In_Ack<5>v" ":55v"
"In_Ack<4>v" ":56v"
"In_Ack<3>v" ":57v"
"In_Ack<2>v" ":58v"
"In_Ack<1>v" ":59v"
"In_Ack<0>v" ":60v"
"RW<1>v" ":61v"
"RW<0>v" ":62v"
"RWAckv" ":63v"
"RW_Ackv" ":64v"
"RW_in<1>v" ":65v"
"RW_in<0>v" ":66v"
