HEADER
"PSFversion" "1.00"
"I34n I41n I54n I58n I59n I55n I43n I35n I24n I20n I7n I0n I25n I21n I9n I1n" "_sub86"
"I60n I62n I26n I28n I61n I63n I27n I29n" "_sub90"
"I36n I2n I38n I4n" "_sub91"
"I39n I37n I3n I5n" "_sub94"
"I40<7>v" "I40_7v"
"I44n I45n I50n I49n I51n I46n I47n I13n I12n I11n I10n I48n I15n I16n I17n I14n" "_sub97"
"I40<6>v" "I40_6v"
"I40<5>v" "I40_5v"
"I40<4>v" "I40_4v"
"I40<3>v" "I40_3v"
"I40<2>v" "I40_2v"
"I40<1>v" "I40_1v"
"I40<0>v" "I40_0v"
"I82<5>v" "I82_5v"
"I82<4>v" "I82_4v"
"I82<3>v" "I82_3v"
"I82<2>v" "I82_2v"
"I82<1>v" "I82_1v"
"I82<0>v" "I82_0v"
"I81<5>v" "I81_5v"
"I81<4>v" "I81_4v"
"I81<3>v" "I81_3v"
"I81<2>v" "I81_2v"
"I81<1>v" "I81_1v"
"I81<0>v" "I81_0v"
"I42<7>v" "I42_7v"
"I42<6>v" "I42_6v"
"I42<5>v" "I42_5v"
"I42<4>v" "I42_4v"
"I42<3>v" "I42_3v"
"I42<2>v" "I42_2v"
"I42<1>v" "I42_1v"
"I42<0>v" "I42_0v"
"I8<7>v" "I8_7v"
"I8<6>v" "I8_6v"
"I8<5>v" "I8_5v"
"I8<4>v" "I8_4v"
"I8<3>v" "I8_3v"
"I8<2>v" "I8_2v"
"I8<1>v" "I8_1v"
"I8<0>v" "I8_0v"
"I6<7>v" "I6_7v"
"I6<6>v" "I6_6v"
"I6<5>v" "I6_5v"
"I6<4>v" "I6_4v"
"I6<3>v" "I6_3v"
"I6<2>v" "I6_2v"
"I6<1>v" "I6_1v"
"I6<0>v" "I6_0v"
"I56<7>v" "I56_7v"
"I40<7>n I40<6>n I40<5>n I40<4>n I40<3>n I40<2>n I40<1>n I40<0>n I82<5>n I82<4>n I82<3>n I82<2>n I82<1>n I82<0>n I81<5>n I81<4>n I81<3>n I81<2>n I81<1>n I81<0>n I42<7>n I42<6>n I42<5>n I42<4>n I42<3>n I42<2>n I42<1>n I42<0>n I8<7>n I8<6>n I8<5>n I8<4>n I8<3>n I8<2>n I8<1>n I8<0>n I6<7>n I6<6>n I6<5>n I6<4>n I6<3>n I6<2>n I6<1>n I6<0>n" "Decode_2to4"
"I56<6>v" "I56_6v"
"I56<5>v" "I56_5v"
"I56<4>v" "I56_4v"
"I56<3>v" "I56_3v"
"I56<2>v" "I56_2v"
"I56<1>v" "I56_1v"
"I56<0>v" "I56_0v"
"I77<5>v" "I77_5v"
"I77<4>v" "I77_4v"
"I77<3>v" "I77_3v"
"I77<2>v" "I77_2v"
"I77<1>v" "I77_1v"
"I77<0>v" "I77_0v"
"I76<5>v" "I76_5v"
"I76<4>v" "I76_4v"
"I76<3>v" "I76_3v"
"I76<2>v" "I76_2v"
"I76<1>v" "I76_1v"
"I76<0>v" "I76_0v"
"I57<7>v" "I57_7v"
"I57<6>v" "I57_6v"
"I57<5>v" "I57_5v"
"I57<4>v" "I57_4v"
"I57<3>v" "I57_3v"
"I57<2>v" "I57_2v"
"I57<1>v" "I57_1v"
"I57<0>v" "I57_0v"
"I23<7>v" "I23_7v"
"I23<6>v" "I23_6v"
"I23<5>v" "I23_5v"
"I23<4>v" "I23_4v"
"I23<3>v" "I23_3v"
"I23<2>v" "I23_2v"
"I23<1>v" "I23_1v"
"I23<0>v" "I23_0v"
"I22<7>v" "I22_7v"
"I22<6>v" "I22_6v"
"I22<5>v" "I22_5v"
"I22<4>v" "I22_4v"
"I22<3>v" "I22_3v"
"I22<2>v" "I22_2v"
"I22<1>v" "I22_1v"
"I22<0>v" "I22_0v"
"I56<7>n I56<6>n I56<5>n I56<4>n I56<3>n I56<2>n I56<1>n I56<0>n I77<5>n I77<4>n I77<3>n I77<2>n I77<1>n I77<0>n I76<5>n I76<4>n I76<3>n I76<2>n I76<1>n I76<0>n I57<7>n I57<6>n I57<5>n I57<4>n I57<3>n I57<2>n I57<1>n I57<0>n I23<7>n I23<6>n I23<5>n I23<4>n I23<3>n I23<2>n I23<1>n I23<0>n I22<7>n I22<6>n I22<5>n I22<4>n I22<3>n I22<2>n I22<1>n I22<0>n" "TH22"
"I64n I70n I30n I32n" "_sub99"
"I75n I74n I80n I79n" "basic_cds_thru_spectre"
"I53<7>v" "I53_7v"
"I65n I71n I31n I33n" "_sub99"
"I53<6>v" "I53_6v"
"I53<5>v" "I53_5v"
"I53<4>v" "I53_4v"
"I53<3>v" "I53_3v"
"I53<2>v" "I53_2v"
"I53<1>v" "I53_1v"
"I53<0>v" "I53_0v"
"I52<7>v" "I52_7v"
"I52<6>v" "I52_6v"
"I52<5>v" "I52_5v"
"I52<4>v" "I52_4v"
"I52<3>v" "I52_3v"
"I52<2>v" "I52_2v"
"I52<1>v" "I52_1v"
"I52<0>v" "I52_0v"
"I18<7>v" "I18_7v"
"I18<6>v" "I18_6v"
"I18<5>v" "I18_5v"
"I18<4>v" "I18_4v"
"I18<3>v" "I18_3v"
"I18<2>v" "I18_2v"
"I18<1>v" "I18_1v"
"I18<0>v" "I18_0v"
"I19<7>v" "I19_7v"
"I19<6>v" "I19_6v"
"I19<5>v" "I19_5v"
"I19<4>v" "I19_4v"
"I19<3>v" "I19_3v"
"I19<2>v" "I19_2v"
"I19<1>v" "I19_1v"
"I19<0>v" "I19_0v"
"I53<7>n I53<6>n I53<5>n I53<4>n I53<3>n I53<2>n I53<1>n I53<0>n I52<7>n I52<6>n I52<5>n I52<4>n I52<3>n I52<2>n I52<1>n I52<0>n I18<7>n I18<6>n I18<5>n I18<4>n I18<3>n I18<2>n I18<1>n I18<0>n I19<7>n I19<6>n I19<5>n I19<4>n I19<3>n I19<2>n I19<1>n I19<0>n" "Encode_4to2"
"I73n I72n" "_sub100"
"I66<5>v" "I66_5v"
"I66<4>v" "I66_4v"
"I66<3>v" "I66_3v"
"I66<2>v" "I66_2v"
"I66<1>v" "I66_1v"
"I66<0>v" "I66_0v"
"I68<5>v" "I68_5v"
"I68<4>v" "I68_4v"
"I68<3>v" "I68_3v"
"I68<2>v" "I68_2v"
"I68<1>v" "I68_1v"
"I68<0>v" "I68_0v"
"I69n I66<5>n I66<4>n I66<3>n I66<2>n I66<1>n I66<0>n I68<5>n I68<4>n I68<3>n I68<2>n I68<1>n I68<0>n I67n" "TH44"
"RData<63>v" ":1v"
"RData<62>v" ":2v"
"RData<61>v" ":3v"
"RData<60>v" ":4v"
"RData<59>v" ":5v"
"RData<58>v" ":6v"
"RData<57>v" ":7v"
"RData<56>v" ":8v"
"RData<55>v" ":9v"
"RData<54>v" ":10v"
"RData<53>v" ":11v"
"RData<52>v" ":12v"
"RData<51>v" ":13v"
"RData<50>v" ":14v"
"RData<49>v" ":15v"
"RData<48>v" ":16v"
"RData<47>v" ":17v"
"RData<46>v" ":18v"
"RData<45>v" ":19v"
"RData<44>v" ":20v"
"RData<43>v" ":21v"
"RData<42>v" ":22v"
"RData<41>v" ":23v"
"RData<40>v" ":24v"
"RData<39>v" ":25v"
"RData<38>v" ":26v"
"RData<37>v" ":27v"
"RData<36>v" ":28v"
"RData<35>v" ":29v"
"RData<34>v" ":30v"
"RData<33>v" ":31v"
"RData<32>v" ":32v"
"RData<31>v" ":33v"
"RData<30>v" ":34v"
"RData<29>v" ":35v"
"RData<28>v" ":36v"
"RData<27>v" ":37v"
"RData<26>v" ":38v"
"RData<25>v" ":39v"
"RData<24>v" ":40v"
"RData<23>v" ":41v"
"RData<22>v" ":42v"
"RData<21>v" ":43v"
"RData<20>v" ":44v"
"RData<19>v" ":45v"
"RData<18>v" ":46v"
"RData<17>v" ":47v"
"RData<16>v" ":48v"
"RData<15>v" ":49v"
"RData<14>v" ":50v"
"RData<13>v" ":51v"
"RData<12>v" ":52v"
"RData<11>v" ":53v"
"RData<10>v" ":54v"
"RData<9>v" ":55v"
"RData<8>v" ":56v"
"RData<7>v" ":57v"
"RData<6>v" ":58v"
"RData<5>v" ":59v"
"RData<4>v" ":60v"
"RData<3>v" ":61v"
"RData<2>v" ":62v"
"RData<1>v" ":63v"
"RData<0>v" ":64v"
"R_Address<11>v" ":65v"
"R_Address<10>v" ":66v"
"R_Address<9>v" ":67v"
"R_Address<8>v" ":68v"
"R_Address<7>v" ":69v"
"R_Address<6>v" ":70v"
"R_Address<5>v" ":71v"
"R_Address<4>v" ":72v"
"R_Address<3>v" ":73v"
"R_Address<2>v" ":74v"
"R_Address<1>v" ":75v"
"R_Address<0>v" ":76v"
"ReadAckv" ":77v"
"ReadEnv" ":78v"
"WData<63>v" ":79v"
"WData<62>v" ":80v"
"WData<61>v" ":81v"
"WData<60>v" ":82v"
"WData<59>v" ":83v"
"WData<58>v" ":84v"
"WData<57>v" ":85v"
"WData<56>v" ":86v"
"WData<55>v" ":87v"
"WData<54>v" ":88v"
"WData<53>v" ":89v"
"WData<52>v" ":90v"
"WData<51>v" ":91v"
"WData<50>v" ":92v"
"WData<49>v" ":93v"
"WData<48>v" ":94v"
"WData<47>v" ":95v"
"WData<46>v" ":96v"
"WData<45>v" ":97v"
"WData<44>v" ":98v"
"WData<43>v" ":99v"
"WData<42>v" ":100v"
"WData<41>v" ":101v"
"WData<40>v" ":102v"
"WData<39>v" ":103v"
"WData<38>v" ":104v"
"WData<37>v" ":105v"
"WData<36>v" ":106v"
"WData<35>v" ":107v"
"WData<34>v" ":108v"
"WData<33>v" ":109v"
"WData<32>v" ":110v"
"WData<31>v" ":111v"
"WData<30>v" ":112v"
"WData<29>v" ":113v"
"WData<28>v" ":114v"
"WData<27>v" ":115v"
"WData<26>v" ":116v"
"WData<25>v" ":117v"
"WData<24>v" ":118v"
"WData<23>v" ":119v"
"WData<22>v" ":120v"
"WData<21>v" ":121v"
"WData<20>v" ":122v"
"WData<19>v" ":123v"
"WData<18>v" ":124v"
"WData<17>v" ":125v"
"WData<16>v" ":126v"
"WData<15>v" ":127v"
"WData<14>v" ":128v"
"WData<13>v" ":129v"
"WData<12>v" ":130v"
"WData<11>v" ":131v"
"WData<10>v" ":132v"
"WData<9>v" ":133v"
"WData<8>v" ":134v"
"WData<7>v" ":135v"
"WData<6>v" ":136v"
"WData<5>v" ":137v"
"WData<4>v" ":138v"
"WData<3>v" ":139v"
"WData<2>v" ":140v"
"WData<1>v" ":141v"
"WData<0>v" ":142v"
"WDataAck<31>v" ":143v"
"WDataAck<30>v" ":144v"
"WDataAck<29>v" ":145v"
"WDataAck<28>v" ":146v"
"WDataAck<27>v" ":147v"
"WDataAck<26>v" ":148v"
"WDataAck<25>v" ":149v"
"WDataAck<24>v" ":150v"
"WDataAck<23>v" ":151v"
"WDataAck<22>v" ":152v"
"WDataAck<21>v" ":153v"
"WDataAck<20>v" ":154v"
"WDataAck<19>v" ":155v"
"WDataAck<18>v" ":156v"
"WDataAck<17>v" ":157v"
"WDataAck<16>v" ":158v"
"WDataAck<15>v" ":159v"
"WDataAck<14>v" ":160v"
"WDataAck<13>v" ":161v"
"WDataAck<12>v" ":162v"
"WDataAck<11>v" ":163v"
"WDataAck<10>v" ":164v"
"WDataAck<9>v" ":165v"
"WDataAck<8>v" ":166v"
"WDataAck<7>v" ":167v"
"WDataAck<6>v" ":168v"
"WDataAck<5>v" ":169v"
"WDataAck<4>v" ":170v"
"WDataAck<3>v" ":171v"
"WDataAck<2>v" ":172v"
"WDataAck<1>v" ":173v"
"WDataAck<0>v" ":174v"
"W_Address<11>v" ":175v"
"W_Address<10>v" ":176v"
"W_Address<9>v" ":177v"
"W_Address<8>v" ":178v"
"W_Address<7>v" ":179v"
"W_Address<6>v" ":180v"
"W_Address<5>v" ":181v"
"W_Address<4>v" ":182v"
"W_Address<3>v" ":183v"
"W_Address<2>v" ":184v"
"W_Address<1>v" ":185v"
"W_Address<0>v" ":186v"
"WriteAckv" ":187v"
"WriteEnv" ":188v"
