HEADER
"PSFversion" "1.00"
"I9<63>v" "I9_63v"
"I9<62>v" "I9_62v"
"I9<61>v" "I9_61v"
"I9<60>v" "I9_60v"
"I9<59>v" "I9_59v"
"I9<58>v" "I9_58v"
"I9<57>v" "I9_57v"
"I9<56>v" "I9_56v"
"I9<55>v" "I9_55v"
"I9<54>v" "I9_54v"
"I9<53>v" "I9_53v"
"I9<52>v" "I9_52v"
"I9<51>v" "I9_51v"
"I9<50>v" "I9_50v"
"I9<49>v" "I9_49v"
"I9<48>v" "I9_48v"
"I9<47>v" "I9_47v"
"I9<46>v" "I9_46v"
"I9<45>v" "I9_45v"
"I9<44>v" "I9_44v"
"I9<43>v" "I9_43v"
"I9<42>v" "I9_42v"
"I9<41>v" "I9_41v"
"I9<40>v" "I9_40v"
"I9<39>v" "I9_39v"
"I9<38>v" "I9_38v"
"I9<37>v" "I9_37v"
"I9<36>v" "I9_36v"
"I9<35>v" "I9_35v"
"I9<34>v" "I9_34v"
"I9<33>v" "I9_33v"
"I9<32>v" "I9_32v"
"I9<31>v" "I9_31v"
"I9<30>v" "I9_30v"
"I9<29>v" "I9_29v"
"I9<28>v" "I9_28v"
"I9<27>v" "I9_27v"
"I9<26>v" "I9_26v"
"I9<25>v" "I9_25v"
"I9<24>v" "I9_24v"
"I9<23>v" "I9_23v"
"I9<22>v" "I9_22v"
"I9<21>v" "I9_21v"
"I9<20>v" "I9_20v"
"I9<19>v" "I9_19v"
"I9<18>v" "I9_18v"
"I9<17>v" "I9_17v"
"I9<16>v" "I9_16v"
"I9<15>v" "I9_15v"
"I9<14>v" "I9_14v"
"I9<13>v" "I9_13v"
"I9<12>v" "I9_12v"
"I9<11>v" "I9_11v"
"I9<10>v" "I9_10v"
"I9<9>v" "I9_9v"
"I9<8>v" "I9_8v"
"I9<7>v" "I9_7v"
"I9<6>v" "I9_6v"
"I9<5>v" "I9_5v"
"I9<4>v" "I9_4v"
"I9<3>v" "I9_3v"
"I9<2>v" "I9_2v"
"I9<1>v" "I9_1v"
"I9<0>v" "I9_0v"
"I6<11>v" "I6_11v"
"I6<10>v" "I6_10v"
"I6<9>v" "I6_9v"
"I6<8>v" "I6_8v"
"I6<7>v" "I6_7v"
"I6<6>v" "I6_6v"
"I6<5>v" "I6_5v"
"I6<4>v" "I6_4v"
"I6<3>v" "I6_3v"
"I6<2>v" "I6_2v"
"I6<1>v" "I6_1v"
"I6<0>v" "I6_0v"
"I5<11>v" "I5_11v"
"I5<10>v" "I5_10v"
"I5<9>v" "I5_9v"
"I5<8>v" "I5_8v"
"I5<7>v" "I5_7v"
"I5<6>v" "I5_6v"
"I5<5>v" "I5_5v"
"I5<4>v" "I5_4v"
"I5<3>v" "I5_3v"
"I5<2>v" "I5_2v"
"I5<1>v" "I5_1v"
"I5<0>v" "I5_0v"
"I27<31>v" "I27_31v"
"I27<30>v" "I27_30v"
"I27<29>v" "I27_29v"
"I27<28>v" "I27_28v"
"I27<27>v" "I27_27v"
"I27<26>v" "I27_26v"
"I27<25>v" "I27_25v"
"I27<24>v" "I27_24v"
"I27<23>v" "I27_23v"
"I27<22>v" "I27_22v"
"I27<21>v" "I27_21v"
"I27<20>v" "I27_20v"
"I27<19>v" "I27_19v"
"I27<18>v" "I27_18v"
"I27<17>v" "I27_17v"
"I27<16>v" "I27_16v"
"I27<15>v" "I27_15v"
"I27<14>v" "I27_14v"
"I27<13>v" "I27_13v"
"I27<12>v" "I27_12v"
"I27<11>v" "I27_11v"
"I27<10>v" "I27_10v"
"I27<9>v" "I27_9v"
"I27<8>v" "I27_8v"
"I27<7>v" "I27_7v"
"I27<6>v" "I27_6v"
"I27<5>v" "I27_5v"
"I27<4>v" "I27_4v"
"I27<3>v" "I27_3v"
"I27<2>v" "I27_2v"
"I27<1>v" "I27_1v"
"I27<0>v" "I27_0v"
"I26<63>v" "I26_63v"
"I26<62>v" "I26_62v"
"I26<61>v" "I26_61v"
"I26<60>v" "I26_60v"
"I26<59>v" "I26_59v"
"I26<58>v" "I26_58v"
"I26<57>v" "I26_57v"
"I26<56>v" "I26_56v"
"I26<55>v" "I26_55v"
"I26<54>v" "I26_54v"
"I26<53>v" "I26_53v"
"I26<52>v" "I26_52v"
"I26<51>v" "I26_51v"
"I26<50>v" "I26_50v"
"I26<49>v" "I26_49v"
"I26<48>v" "I26_48v"
"I26<47>v" "I26_47v"
"I26<46>v" "I26_46v"
"I26<45>v" "I26_45v"
"I26<44>v" "I26_44v"
"I26<43>v" "I26_43v"
"I26<42>v" "I26_42v"
"I26<41>v" "I26_41v"
"I26<40>v" "I26_40v"
"I26<39>v" "I26_39v"
"I26<38>v" "I26_38v"
"I26<37>v" "I26_37v"
"I26<36>v" "I26_36v"
"I26<35>v" "I26_35v"
"I26<34>v" "I26_34v"
"I26<33>v" "I26_33v"
"I26<32>v" "I26_32v"
"I26<31>v" "I26_31v"
"I26<30>v" "I26_30v"
"I26<29>v" "I26_29v"
"I26<28>v" "I26_28v"
"I26<27>v" "I26_27v"
"I26<26>v" "I26_26v"
"I26<25>v" "I26_25v"
"I26<24>v" "I26_24v"
"I26<23>v" "I26_23v"
"I26<22>v" "I26_22v"
"I26<21>v" "I26_21v"
"I26<20>v" "I26_20v"
"I26<19>v" "I26_19v"
"I26<18>v" "I26_18v"
"I26<17>v" "I26_17v"
"I26<16>v" "I26_16v"
"I26<15>v" "I26_15v"
"I26<14>v" "I26_14v"
"I26<13>v" "I26_13v"
"I26<12>v" "I26_12v"
"I26<11>v" "I26_11v"
"I26<10>v" "I26_10v"
"I26<9>v" "I26_9v"
"I26<8>v" "I26_8v"
"I26<7>v" "I26_7v"
"I26<6>v" "I26_6v"
"I26<5>v" "I26_5v"
"I26<4>v" "I26_4v"
"I26<3>v" "I26_3v"
"I26<2>v" "I26_2v"
"I26<1>v" "I26_1v"
"I26<0>v" "I26_0v"
"I9<63>n I9<62>n I9<61>n I9<60>n I9<59>n I9<58>n I9<57>n I9<56>n I9<55>n I9<54>n I9<53>n I9<52>n I9<51>n I9<50>n I9<49>n I9<48>n I9<47>n I9<46>n I9<45>n I9<44>n I9<43>n I9<42>n I9<41>n I9<40>n I9<39>n I9<38>n I9<37>n I9<36>n I9<35>n I9<34>n I9<33>n I9<32>n I9<31>n I9<30>n I9<29>n I9<28>n I9<27>n I9<26>n I9<25>n I9<24>n I9<23>n I9<22>n I9<21>n I9<20>n I9<19>n I9<18>n I9<17>n I9<16>n I9<15>n I9<14>n I9<13>n I9<12>n I9<11>n I9<10>n I9<9>n I9<8>n I9<7>n I9<6>n I9<5>n I9<4>n I9<3>n I9<2>n I9<1>n I9<0>n I17n I14n I6<11>n I6<10>n I6<9>n I6<8>n I6<7>n I6<6>n I6<5>n I6<4>n I6<3>n I6<2>n I6<1>n I6<0>n I11n I13n I5<11>n I5<10>n I5<9>n I5<8>n I5<7>n I5<6>n I5<5>n I5<4>n I5<3>n I5<2>n I5<1>n I5<0>n I27<31>n I27<30>n I27<29>n I27<28>n I27<27>n I27<26>n I27<25>n I27<24>n I27<23>n I27<22>n I27<21>n I27<20>n I27<19>n I27<18>n I27<17>n I27<16>n I27<15>n I27<14>n I27<13>n I27<12>n I27<11>n I27<10>n I27<9>n I27<8>n I27<7>n I27<6>n I27<5>n I27<4>n I27<3>n I27<2>n I27<1>n I27<0>n I26<63>n I26<62>n I26<61>n I26<60>n I26<59>n I26<58>n I26<57>n I26<56>n I26<55>n I26<54>n I26<53>n I26<52>n I26<51>n I26<50>n I26<49>n I26<48>n I26<47>n I26<46>n I26<45>n I26<44>n I26<43>n I26<42>n I26<41>n I26<40>n I26<39>n I26<38>n I26<37>n I26<36>n I26<35>n I26<34>n I26<33>n I26<32>n I26<31>n I26<30>n I26<29>n I26<28>n I26<27>n I26<26>n I26<25>n I26<24>n I26<23>n I26<22>n I26<21>n I26<20>n I26<19>n I26<18>n I26<17>n I26<16>n I26<15>n I26<14>n I26<13>n I26<12>n I26<11>n I26<10>n I26<9>n I26<8>n I26<7>n I26<6>n I26<5>n I26<4>n I26<3>n I26<2>n I26<1>n I26<0>n" "inv_1xt"
"V0n V1n" "UCD_Analog_Parts_vdc_spectre"
"I21n" "_sub114"
