HEADER
"PSFversion" "1.00"
"Ack<3>v" "Ack_3v"
"Ack<2>v" "Ack_2v"
"Ack<1>v" "Ack_1v"
"Ack<0>v" "Ack_0v"
"In_Ack<4>v" "In_Ack_4v"
"In_6of24<19>v" "In_6of24_19v"
"In_6of24<18>v" "In_6of24_18v"
"In_6of24<17>v" "In_6of24_17v"
"In_6of24<16>v" "In_6of24_16v"
"Ack<5>v" "Ack_5v"
"Ack<4>v" "Ack_4v"
"A<23>v" "A_23v"
"A<22>v" "A_22v"
"A<21>v" "A_21v"
"A<20>v" "A_20v"
"A<19>v" "A_19v"
"A<18>v" "A_18v"
"A<17>v" "A_17v"
"A<16>v" "A_16v"
"A<15>v" "A_15v"
"A<14>v" "A_14v"
"A<13>v" "A_13v"
"A<12>v" "A_12v"
"A<11>v" "A_11v"
"A<10>v" "A_10v"
"A<9>v" "A_9v"
"A<8>v" "A_8v"
"A<7>v" "A_7v"
"A<6>v" "A_6v"
"A<5>v" "A_5v"
"A<4>v" "A_4v"
"A<3>v" "A_3v"
"A<2>v" "A_2v"
"A<1>v" "A_1v"
"A<0>v" "A_0v"
"In_6of24<15>v" "In_6of24_15v"
"In_6of24<14>v" "In_6of24_14v"
"In_6of24<13>v" "In_6of24_13v"
"In_6of24<12>v" "In_6of24_12v"
"In_6of24<11>v" "In_6of24_11v"
"In_6of24<10>v" "In_6of24_10v"
"In_6of24<9>v" "In_6of24_9v"
"In_6of24<8>v" "In_6of24_8v"
"In_6of24<7>v" "In_6of24_7v"
"In_6of24<6>v" "In_6of24_6v"
"In_6of24<5>v" "In_6of24_5v"
"In_6of24<4>v" "In_6of24_4v"
"In_6of24<3>v" "In_6of24_3v"
"In_6of24<2>v" "In_6of24_2v"
"In_6of24<1>v" "In_6of24_1v"
"In_6of24<0>v" "In_6of24_0v"
"RW_in<1>v" "RW_in_1v"
"RW_in<0>v" "RW_in_0v"
"In_Ack<3>v" "In_Ack_3v"
"In_Ack<2>v" "In_Ack_2v"
"In_Ack<1>v" "In_Ack_1v"
"In_Ack<0>v" "In_Ack_0v"
"In_Ack<5>v" "In_Ack_5v"
"RWAckv" "RWAckv"
"In_6of24<23>v" "In_6of24_23v"
"In_6of24<22>v" "In_6of24_22v"
"In_6of24<21>v" "In_6of24_21v"
"In_6of24<20>v" "In_6of24_20v"
"RW_Ackv" "RW_Ackv"
"RW<1>v" "RW_1v"
"RW<0>v" "RW_0v"
