HEADER
"PSFversion" "1.00"
"~WData<63>v" "\\~WData_63v"
"~WData<62>v" "\\~WData_62v"
"~WData<61>v" "\\~WData_61v"
"~WData<60>v" "\\~WData_60v"
"~WData<59>v" "\\~WData_59v"
"~WData<58>v" "\\~WData_58v"
"~WData<57>v" "\\~WData_57v"
"~WData<56>v" "\\~WData_56v"
"~WData<55>v" "\\~WData_55v"
"~WData<54>v" "\\~WData_54v"
"~WData<53>v" "\\~WData_53v"
"~WData<52>v" "\\~WData_52v"
"~WData<51>v" "\\~WData_51v"
"~WData<50>v" "\\~WData_50v"
"~WData<49>v" "\\~WData_49v"
"~WData<48>v" "\\~WData_48v"
"~WData<47>v" "\\~WData_47v"
"~WData<46>v" "\\~WData_46v"
"~WData<45>v" "\\~WData_45v"
"~WData<44>v" "\\~WData_44v"
"~WData<43>v" "\\~WData_43v"
"~WData<42>v" "\\~WData_42v"
"~WData<41>v" "\\~WData_41v"
"~WData<40>v" "\\~WData_40v"
"~WData<39>v" "\\~WData_39v"
"~WData<38>v" "\\~WData_38v"
"~WData<37>v" "\\~WData_37v"
"~WData<36>v" "\\~WData_36v"
"~WData<35>v" "\\~WData_35v"
"~WData<34>v" "\\~WData_34v"
"~WData<33>v" "\\~WData_33v"
"~WData<32>v" "\\~WData_32v"
"~WData<31>v" "\\~WData_31v"
"~WData<30>v" "\\~WData_30v"
"~WData<29>v" "\\~WData_29v"
"~WData<28>v" "\\~WData_28v"
"~WData<27>v" "\\~WData_27v"
"~WData<26>v" "\\~WData_26v"
"~WData<25>v" "\\~WData_25v"
"~WData<24>v" "\\~WData_24v"
"~WData<23>v" "\\~WData_23v"
"~WData<22>v" "\\~WData_22v"
"~WData<21>v" "\\~WData_21v"
"~WData<20>v" "\\~WData_20v"
"~WData<19>v" "\\~WData_19v"
"~WData<18>v" "\\~WData_18v"
"~WData<17>v" "\\~WData_17v"
"~WData<16>v" "\\~WData_16v"
"~WData<15>v" "\\~WData_15v"
"~WData<14>v" "\\~WData_14v"
"~WData<13>v" "\\~WData_13v"
"~WData<12>v" "\\~WData_12v"
"~WData<11>v" "\\~WData_11v"
"~WData<10>v" "\\~WData_10v"
"~WData<9>v" "\\~WData_9v"
"~WData<8>v" "\\~WData_8v"
"~WData<7>v" "\\~WData_7v"
"~WData<6>v" "\\~WData_6v"
"~WData<5>v" "\\~WData_5v"
"~WData<4>v" "\\~WData_4v"
"~WData<3>v" "\\~WData_3v"
"~WData<2>v" "\\~WData_2v"
"~WData<1>v" "\\~WData_1v"
"~WData<0>v" "\\~WData_0v"
"~R_Address<11>v" "\\~R_Address_11v"
"~R_Address<10>v" "\\~R_Address_10v"
"~R_Address<9>v" "\\~R_Address_9v"
"~R_Address<8>v" "\\~R_Address_8v"
"~R_Address<7>v" "\\~R_Address_7v"
"~R_Address<6>v" "\\~R_Address_6v"
"~R_Address<5>v" "\\~R_Address_5v"
"~R_Address<4>v" "\\~R_Address_4v"
"~R_Address<3>v" "\\~R_Address_3v"
"~R_Address<2>v" "\\~R_Address_2v"
"~R_Address<1>v" "\\~R_Address_1v"
"~R_Address<0>v" "\\~R_Address_0v"
"W_AddressT<11>v" "W_AddressT_11v"
"W_AddressT<10>v" "W_AddressT_10v"
"W_AddressT<9>v" "W_AddressT_9v"
"W_AddressT<8>v" "W_AddressT_8v"
"W_AddressT<7>v" "W_AddressT_7v"
"W_AddressT<6>v" "W_AddressT_6v"
"W_AddressT<5>v" "W_AddressT_5v"
"W_AddressT<4>v" "W_AddressT_4v"
"W_AddressT<3>v" "W_AddressT_3v"
"W_AddressT<2>v" "W_AddressT_2v"
"W_AddressT<1>v" "W_AddressT_1v"
"W_AddressT<0>v" "W_AddressT_0v"
"WDataT<63>v" "WDataT_63v"
"WDataT<62>v" "WDataT_62v"
"WDataT<61>v" "WDataT_61v"
"WDataT<60>v" "WDataT_60v"
"WDataT<59>v" "WDataT_59v"
"WDataT<58>v" "WDataT_58v"
"WDataT<57>v" "WDataT_57v"
"WDataT<56>v" "WDataT_56v"
"WDataT<55>v" "WDataT_55v"
"WDataT<54>v" "WDataT_54v"
"WDataT<53>v" "WDataT_53v"
"WDataT<52>v" "WDataT_52v"
"WDataT<51>v" "WDataT_51v"
"WDataT<50>v" "WDataT_50v"
"WDataT<49>v" "WDataT_49v"
"WDataT<48>v" "WDataT_48v"
"WDataT<47>v" "WDataT_47v"
"WDataT<46>v" "WDataT_46v"
"WDataT<45>v" "WDataT_45v"
"WDataT<44>v" "WDataT_44v"
"WDataT<43>v" "WDataT_43v"
"WDataT<42>v" "WDataT_42v"
"WDataT<41>v" "WDataT_41v"
"WDataT<40>v" "WDataT_40v"
"WDataT<39>v" "WDataT_39v"
"WDataT<38>v" "WDataT_38v"
"WDataT<37>v" "WDataT_37v"
"WDataT<36>v" "WDataT_36v"
"WDataT<35>v" "WDataT_35v"
"WDataT<34>v" "WDataT_34v"
"WDataT<33>v" "WDataT_33v"
"WDataT<32>v" "WDataT_32v"
"WDataT<31>v" "WDataT_31v"
"WDataT<30>v" "WDataT_30v"
"WDataT<29>v" "WDataT_29v"
"WDataT<28>v" "WDataT_28v"
"WDataT<27>v" "WDataT_27v"
"WDataT<26>v" "WDataT_26v"
"WDataT<25>v" "WDataT_25v"
"WDataT<24>v" "WDataT_24v"
"WDataT<23>v" "WDataT_23v"
"WDataT<22>v" "WDataT_22v"
"WDataT<21>v" "WDataT_21v"
"WDataT<20>v" "WDataT_20v"
"WDataT<19>v" "WDataT_19v"
"WDataT<18>v" "WDataT_18v"
"WDataT<17>v" "WDataT_17v"
"WDataT<16>v" "WDataT_16v"
"WDataT<15>v" "WDataT_15v"
"WDataT<14>v" "WDataT_14v"
"WDataT<13>v" "WDataT_13v"
"WDataT<12>v" "WDataT_12v"
"WDataT<11>v" "WDataT_11v"
"WDataT<10>v" "WDataT_10v"
"WDataT<9>v" "WDataT_9v"
"WDataT<8>v" "WDataT_8v"
"WDataT<7>v" "WDataT_7v"
"WDataT<6>v" "WDataT_6v"
"WDataT<5>v" "WDataT_5v"
"WDataT<4>v" "WDataT_4v"
"WDataT<3>v" "WDataT_3v"
"WDataT<2>v" "WDataT_2v"
"WDataT<1>v" "WDataT_1v"
"WDataT<0>v" "WDataT_0v"
"~RData<63>v" "\\~RData_63v"
"~RData<62>v" "\\~RData_62v"
"~RData<61>v" "\\~RData_61v"
"~RData<60>v" "\\~RData_60v"
"~RData<59>v" "\\~RData_59v"
"~RData<58>v" "\\~RData_58v"
"~RData<57>v" "\\~RData_57v"
"~RData<56>v" "\\~RData_56v"
"~RData<55>v" "\\~RData_55v"
"~RData<54>v" "\\~RData_54v"
"~RData<53>v" "\\~RData_53v"
"~RData<52>v" "\\~RData_52v"
"~RData<51>v" "\\~RData_51v"
"~RData<50>v" "\\~RData_50v"
"~RData<49>v" "\\~RData_49v"
"~RData<48>v" "\\~RData_48v"
"~RData<47>v" "\\~RData_47v"
"~RData<46>v" "\\~RData_46v"
"~RData<45>v" "\\~RData_45v"
"~RData<44>v" "\\~RData_44v"
"~RData<43>v" "\\~RData_43v"
"~RData<42>v" "\\~RData_42v"
"~RData<41>v" "\\~RData_41v"
"~RData<40>v" "\\~RData_40v"
"~RData<39>v" "\\~RData_39v"
"~RData<38>v" "\\~RData_38v"
"~RData<37>v" "\\~RData_37v"
"~RData<36>v" "\\~RData_36v"
"~RData<35>v" "\\~RData_35v"
"~RData<34>v" "\\~RData_34v"
"~RData<33>v" "\\~RData_33v"
"~RData<32>v" "\\~RData_32v"
"~RData<31>v" "\\~RData_31v"
"~RData<30>v" "\\~RData_30v"
"~RData<29>v" "\\~RData_29v"
"~RData<28>v" "\\~RData_28v"
"~RData<27>v" "\\~RData_27v"
"~RData<26>v" "\\~RData_26v"
"~RData<25>v" "\\~RData_25v"
"~RData<24>v" "\\~RData_24v"
"~RData<23>v" "\\~RData_23v"
"~RData<22>v" "\\~RData_22v"
"~RData<21>v" "\\~RData_21v"
"~RData<20>v" "\\~RData_20v"
"~RData<19>v" "\\~RData_19v"
"~RData<18>v" "\\~RData_18v"
"~RData<17>v" "\\~RData_17v"
"~RData<16>v" "\\~RData_16v"
"~RData<15>v" "\\~RData_15v"
"~RData<14>v" "\\~RData_14v"
"~RData<13>v" "\\~RData_13v"
"~RData<12>v" "\\~RData_12v"
"~RData<11>v" "\\~RData_11v"
"~RData<10>v" "\\~RData_10v"
"~RData<9>v" "\\~RData_9v"
"~RData<8>v" "\\~RData_8v"
"~RData<7>v" "\\~RData_7v"
"~RData<6>v" "\\~RData_6v"
"~RData<5>v" "\\~RData_5v"
"~RData<4>v" "\\~RData_4v"
"~RData<3>v" "\\~RData_3v"
"~RData<2>v" "\\~RData_2v"
"~RData<1>v" "\\~RData_1v"
"~RData<0>v" "\\~RData_0v"
"WDataAckT<31>v" "WDataAckT_31v"
"WDataAckT<30>v" "WDataAckT_30v"
"WDataAckT<29>v" "WDataAckT_29v"
"WDataAckT<28>v" "WDataAckT_28v"
"WDataAckT<27>v" "WDataAckT_27v"
"WDataAckT<26>v" "WDataAckT_26v"
"WDataAckT<25>v" "WDataAckT_25v"
"WDataAckT<24>v" "WDataAckT_24v"
"WDataAckT<23>v" "WDataAckT_23v"
"WDataAckT<22>v" "WDataAckT_22v"
"WDataAckT<21>v" "WDataAckT_21v"
"WDataAckT<20>v" "WDataAckT_20v"
"WDataAckT<19>v" "WDataAckT_19v"
"WDataAckT<18>v" "WDataAckT_18v"
"WDataAckT<17>v" "WDataAckT_17v"
"WDataAckT<16>v" "WDataAckT_16v"
"WDataAckT<15>v" "WDataAckT_15v"
"WDataAckT<14>v" "WDataAckT_14v"
"WDataAckT<13>v" "WDataAckT_13v"
"WDataAckT<12>v" "WDataAckT_12v"
"WDataAckT<11>v" "WDataAckT_11v"
"WDataAckT<10>v" "WDataAckT_10v"
"WDataAckT<9>v" "WDataAckT_9v"
"WDataAckT<8>v" "WDataAckT_8v"
"WDataAckT<7>v" "WDataAckT_7v"
"WDataAckT<6>v" "WDataAckT_6v"
"WDataAckT<5>v" "WDataAckT_5v"
"WDataAckT<4>v" "WDataAckT_4v"
"WDataAckT<3>v" "WDataAckT_3v"
"WDataAckT<2>v" "WDataAckT_2v"
"WDataAckT<1>v" "WDataAckT_1v"
"WDataAckT<0>v" "WDataAckT_0v"
"~W_Address<11>v" "\\~W_Address_11v"
"~W_Address<10>v" "\\~W_Address_10v"
"~W_Address<9>v" "\\~W_Address_9v"
"~W_Address<8>v" "\\~W_Address_8v"
"~W_Address<7>v" "\\~W_Address_7v"
"~W_Address<6>v" "\\~W_Address_6v"
"~W_Address<5>v" "\\~W_Address_5v"
"~W_Address<4>v" "\\~W_Address_4v"
"~W_Address<3>v" "\\~W_Address_3v"
"~W_Address<2>v" "\\~W_Address_2v"
"~W_Address<1>v" "\\~W_Address_1v"
"~W_Address<0>v" "\\~W_Address_0v"
"~ReadEnv" "\\~ReadEnv"
"ReadEnTv" "ReadEnTv"
"R_AddressT<11>v" "R_AddressT_11v"
"R_AddressT<10>v" "R_AddressT_10v"
"R_AddressT<9>v" "R_AddressT_9v"
"R_AddressT<8>v" "R_AddressT_8v"
"R_AddressT<7>v" "R_AddressT_7v"
"R_AddressT<6>v" "R_AddressT_6v"
"R_AddressT<5>v" "R_AddressT_5v"
"R_AddressT<4>v" "R_AddressT_4v"
"R_AddressT<3>v" "R_AddressT_3v"
"R_AddressT<2>v" "R_AddressT_2v"
"R_AddressT<1>v" "R_AddressT_1v"
"R_AddressT<0>v" "R_AddressT_0v"
"WAckTv" "WAckTv"
"~WriteEnv" "\\~WriteEnv"
"~RAckv" "\\~RAckv"
"WriteEnTv" "WriteEnTv"
"~WAckv" "\\~WAckv"
"RAckTv" "RAckTv"
"~WDataAck<31>v" "\\~WDataAck_31v"
"~WDataAck<30>v" "\\~WDataAck_30v"
"~WDataAck<29>v" "\\~WDataAck_29v"
"~WDataAck<28>v" "\\~WDataAck_28v"
"~WDataAck<27>v" "\\~WDataAck_27v"
"~WDataAck<26>v" "\\~WDataAck_26v"
"~WDataAck<25>v" "\\~WDataAck_25v"
"~WDataAck<24>v" "\\~WDataAck_24v"
"~WDataAck<23>v" "\\~WDataAck_23v"
"~WDataAck<22>v" "\\~WDataAck_22v"
"~WDataAck<21>v" "\\~WDataAck_21v"
"~WDataAck<20>v" "\\~WDataAck_20v"
"~WDataAck<19>v" "\\~WDataAck_19v"
"~WDataAck<18>v" "\\~WDataAck_18v"
"~WDataAck<17>v" "\\~WDataAck_17v"
"~WDataAck<16>v" "\\~WDataAck_16v"
"~WDataAck<15>v" "\\~WDataAck_15v"
"~WDataAck<14>v" "\\~WDataAck_14v"
"~WDataAck<13>v" "\\~WDataAck_13v"
"~WDataAck<12>v" "\\~WDataAck_12v"
"~WDataAck<11>v" "\\~WDataAck_11v"
"~WDataAck<10>v" "\\~WDataAck_10v"
"~WDataAck<9>v" "\\~WDataAck_9v"
"~WDataAck<8>v" "\\~WDataAck_8v"
"~WDataAck<7>v" "\\~WDataAck_7v"
"~WDataAck<6>v" "\\~WDataAck_6v"
"~WDataAck<5>v" "\\~WDataAck_5v"
"~WDataAck<4>v" "\\~WDataAck_4v"
"~WDataAck<3>v" "\\~WDataAck_3v"
"~WDataAck<2>v" "\\~WDataAck_2v"
"~WDataAck<1>v" "\\~WDataAck_1v"
"~WDataAck<0>v" "\\~WDataAck_0v"
"RDataT<63>v" "RDataT_63v"
"RDataT<62>v" "RDataT_62v"
"RDataT<61>v" "RDataT_61v"
"RDataT<60>v" "RDataT_60v"
"RDataT<59>v" "RDataT_59v"
"RDataT<58>v" "RDataT_58v"
"RDataT<57>v" "RDataT_57v"
"RDataT<56>v" "RDataT_56v"
"RDataT<55>v" "RDataT_55v"
"RDataT<54>v" "RDataT_54v"
"RDataT<53>v" "RDataT_53v"
"RDataT<52>v" "RDataT_52v"
"RDataT<51>v" "RDataT_51v"
"RDataT<50>v" "RDataT_50v"
"RDataT<49>v" "RDataT_49v"
"RDataT<48>v" "RDataT_48v"
"RDataT<47>v" "RDataT_47v"
"RDataT<46>v" "RDataT_46v"
"RDataT<45>v" "RDataT_45v"
"RDataT<44>v" "RDataT_44v"
"RDataT<43>v" "RDataT_43v"
"RDataT<42>v" "RDataT_42v"
"RDataT<41>v" "RDataT_41v"
"RDataT<40>v" "RDataT_40v"
"RDataT<39>v" "RDataT_39v"
"RDataT<38>v" "RDataT_38v"
"RDataT<37>v" "RDataT_37v"
"RDataT<36>v" "RDataT_36v"
"RDataT<35>v" "RDataT_35v"
"RDataT<34>v" "RDataT_34v"
"RDataT<33>v" "RDataT_33v"
"RDataT<32>v" "RDataT_32v"
"RDataT<31>v" "RDataT_31v"
"RDataT<30>v" "RDataT_30v"
"RDataT<29>v" "RDataT_29v"
"RDataT<28>v" "RDataT_28v"
"RDataT<27>v" "RDataT_27v"
"RDataT<26>v" "RDataT_26v"
"RDataT<25>v" "RDataT_25v"
"RDataT<24>v" "RDataT_24v"
"RDataT<23>v" "RDataT_23v"
"RDataT<22>v" "RDataT_22v"
"RDataT<21>v" "RDataT_21v"
"RDataT<20>v" "RDataT_20v"
"RDataT<19>v" "RDataT_19v"
"RDataT<18>v" "RDataT_18v"
"RDataT<17>v" "RDataT_17v"
"RDataT<16>v" "RDataT_16v"
"RDataT<15>v" "RDataT_15v"
"RDataT<14>v" "RDataT_14v"
"RDataT<13>v" "RDataT_13v"
"RDataT<12>v" "RDataT_12v"
"RDataT<11>v" "RDataT_11v"
"RDataT<10>v" "RDataT_10v"
"RDataT<9>v" "RDataT_9v"
"RDataT<8>v" "RDataT_8v"
"RDataT<7>v" "RDataT_7v"
"RDataT<6>v" "RDataT_6v"
"RDataT<5>v" "RDataT_5v"
"RDataT<4>v" "RDataT_4v"
"RDataT<3>v" "RDataT_3v"
"RDataT<2>v" "RDataT_2v"
"RDataT<1>v" "RDataT_1v"
"RDataT<0>v" "RDataT_0v"
"vcc!v" "vcc!v"
"vdd!v" "vdd!v"
"gnd!v" "0v"
