HEADER
"PSFversion" "1.00"
"A<63>v" "A[63]v"
"A<62>v" "A[62]v"
"A<61>v" "A[61]v"
"A<60>v" "A[60]v"
"A<59>v" "A[59]v"
"A<58>v" "A[58]v"
"A<57>v" "A[57]v"
"A<56>v" "A[56]v"
"A<55>v" "A[55]v"
"A<54>v" "A[54]v"
"A<53>v" "A[53]v"
"A<52>v" "A[52]v"
"A<51>v" "A[51]v"
"A<50>v" "A[50]v"
"A<49>v" "A[49]v"
"A<48>v" "A[48]v"
"A<47>v" "A[47]v"
"A<46>v" "A[46]v"
"A<45>v" "A[45]v"
"A<44>v" "A[44]v"
"A<43>v" "A[43]v"
"A<42>v" "A[42]v"
"A<41>v" "A[41]v"
"A<40>v" "A[40]v"
"A<39>v" "A[39]v"
"A<38>v" "A[38]v"
"A<37>v" "A[37]v"
"A<36>v" "A[36]v"
"A<35>v" "A[35]v"
"A<34>v" "A[34]v"
"A<33>v" "A[33]v"
"A<32>v" "A[32]v"
"A<31>v" "A[31]v"
"A<30>v" "A[30]v"
"A<29>v" "A[29]v"
"A<28>v" "A[28]v"
"A<27>v" "A[27]v"
"A<26>v" "A[26]v"
"A<25>v" "A[25]v"
"A<24>v" "A[24]v"
"A<23>v" "A[23]v"
"A<22>v" "A[22]v"
"A<21>v" "A[21]v"
"A<20>v" "A[20]v"
"A<19>v" "A[19]v"
"A<18>v" "A[18]v"
"A<17>v" "A[17]v"
"A<16>v" "A[16]v"
"A<15>v" "A[15]v"
"A<14>v" "A[14]v"
"A<13>v" "A[13]v"
"A<12>v" "A[12]v"
"A<11>v" "A[11]v"
"A<10>v" "A[10]v"
"A<9>v" "A[9]v"
"A<8>v" "A[8]v"
"A<7>v" "A[7]v"
"A<6>v" "A[6]v"
"A<5>v" "A[5]v"
"A<4>v" "A[4]v"
"A<3>v" "A[3]v"
"A<2>v" "A[2]v"
"A<1>v" "A[1]v"
"A<0>v" "A[0]v"
"W0<0>v" "W0[0]v"
"~R1<3>v" "\\~R1 [3]v"
"~R1<2>v" "\\~R1 [2]v"
"~R1<1>v" "\\~R1 [1]v"
"~R1<0>v" "\\~R1 [0]v"
"~R0<3>v" "\\~R0 [3]v"
"~R0<2>v" "\\~R0 [2]v"
"~R0<1>v" "\\~R0 [1]v"
"~R0<0>v" "\\~R0 [0]v"
"B0<3>v" "B0[3]v"
"B0<2>v" "B0[2]v"
"B0<1>v" "B0[1]v"
"B0<0>v" "B0[0]v"
"B1<3>v" "B1[3]v"
"B1<2>v" "B1[2]v"
"B1<1>v" "B1[1]v"
"B1<0>v" "B1[0]v"
"W1<3>v" "W1[3]v"
"W1<2>v" "W1[2]v"
"W1<1>v" "W1[1]v"
"W1<0>v" "W1[0]v"
"W0<3>v" "W0[3]v"
"W0<2>v" "W0[2]v"
"W0<1>v" "W0[1]v"
"S<7>v" "S[7]v"
"S<6>v" "S[6]v"
"S<5>v" "S[5]v"
"S<4>v" "S[4]v"
"S<3>v" "S[3]v"
"S<2>v" "S[2]v"
"S<1>v" "S[1]v"
"S<0>v" "S[0]v"
"A<63>v" "A[63]v"
"A<62>v" "A[62]v"
"A<61>v" "A[61]v"
"A<60>v" "A[60]v"
"A<59>v" "A[59]v"
"A<58>v" "A[58]v"
"A<57>v" "A[57]v"
"A<56>v" "A[56]v"
"A<55>v" "A[55]v"
"A<54>v" "A[54]v"
"A<53>v" "A[53]v"
"A<52>v" "A[52]v"
"A<51>v" "A[51]v"
"A<50>v" "A[50]v"
"A<49>v" "A[49]v"
"A<48>v" "A[48]v"
"A<47>v" "A[47]v"
"A<46>v" "A[46]v"
"A<45>v" "A[45]v"
"A<44>v" "A[44]v"
"A<43>v" "A[43]v"
"A<42>v" "A[42]v"
"A<41>v" "A[41]v"
"A<40>v" "A[40]v"
"A<39>v" "A[39]v"
"A<38>v" "A[38]v"
"A<37>v" "A[37]v"
"A<36>v" "A[36]v"
"A<35>v" "A[35]v"
"A<34>v" "A[34]v"
"A<33>v" "A[33]v"
"A<32>v" "A[32]v"
"A<31>v" "A[31]v"
"A<30>v" "A[30]v"
"A<29>v" "A[29]v"
"A<28>v" "A[28]v"
"A<27>v" "A[27]v"
"A<26>v" "A[26]v"
"A<25>v" "A[25]v"
"A<24>v" "A[24]v"
"A<23>v" "A[23]v"
"A<22>v" "A[22]v"
"A<21>v" "A[21]v"
"A<20>v" "A[20]v"
"A<19>v" "A[19]v"
"A<18>v" "A[18]v"
"A<17>v" "A[17]v"
"A<16>v" "A[16]v"
"A<15>v" "A[15]v"
"A<14>v" "A[14]v"
"A<13>v" "A[13]v"
"A<12>v" "A[12]v"
"A<11>v" "A[11]v"
"A<10>v" "A[10]v"
"A<9>v" "A[9]v"
"A<8>v" "A[8]v"
"A<7>v" "A[7]v"
"A<6>v" "A[6]v"
"A<5>v" "A[5]v"
"A<4>v" "A[4]v"
"A<3>v" "A[3]v"
"A<2>v" "A[2]v"
"A<1>v" "A[1]v"
"A<0>v" "A[0]v"
"W0<0>v" "W0[0]v"
"~R1<3>v" "\\~R1 [3]v"
"~R1<2>v" "\\~R1 [2]v"
"~R1<1>v" "\\~R1 [1]v"
"~R1<0>v" "\\~R1 [0]v"
"~R0<3>v" "\\~R0 [3]v"
"~R0<2>v" "\\~R0 [2]v"
"~R0<1>v" "\\~R0 [1]v"
"~R0<0>v" "\\~R0 [0]v"
"B0<3>v" "B0[3]v"
"B0<2>v" "B0[2]v"
"B0<1>v" "B0[1]v"
"B0<0>v" "B0[0]v"
"B1<3>v" "B1[3]v"
"B1<2>v" "B1[2]v"
"B1<1>v" "B1[1]v"
"B1<0>v" "B1[0]v"
"W1<3>v" "W1[3]v"
"W1<2>v" "W1[2]v"
"W1<1>v" "W1[1]v"
"W1<0>v" "W1[0]v"
"W0<3>v" "W0[3]v"
"W0<2>v" "W0[2]v"
"W0<1>v" "W0[1]v"
"S<7>v" "S[7]v"
"S<6>v" "S[6]v"
"S<5>v" "S[5]v"
"S<4>v" "S[4]v"
"S<3>v" "S[3]v"
"S<2>v" "S[2]v"
"S<1>v" "S[1]v"
"S<0>v" "S[0]v"
