HEADER
"PSFversion" "1.00"
"~ackv" "\\~ack v"
"~R0v" "\\~R0 v"
"~R1v" "\\~R1 v"
"R0i+1v" "\\R0i+1 v"
"Ai+1v" "\\Ai+1 v"
"R1i+1v" "\\R1i+1 v"
"~ackv" "\\~ack v"
"~R0v" "\\~R0 v"
"~R1v" "\\~R1 v"
"R0i+1v" "\\R0i+1 v"
"Ai+1v" "\\Ai+1 v"
"R1i+1v" "\\R1i+1 v"
