HEADER
"PSFversion" "1.00"
"C-v" "\\C- v"
"~B+v" "\\~B+ v"
"B+v" "\\B+ v"
"C-v" "\\C- v"
"~B+v" "\\~B+ v"
"B+v" "\\B+ v"
