HEADER
"PSFversion" "1.00"
"Reqv" "Reqv"
"sf<2>v" "sf_2v"
"df0v" "df0v"
"st<1>v" "st_1v"
"bf<0>v" "bf_0v"
"df1v" "df1v"
"dt2v" "dt2v"
"df2v" "df2v"
"Req0v" "Req0v"
"Req1v" "Req1v"
"Req2v" "Req2v"
"bf<1>v" "bf_1v"
"Req3v" "Req3v"
"af<3>v" "af_3v"
"bf<3>v" "bf_3v"
"dt1v" "dt1v"
"sf<1>v" "sf_1v"
"st<0>v" "st_0v"
"bt<2>v" "bt_2v"
"at<1>v" "at_1v"
"ctv" "ctv"
"st<3>v" "st_3v"
"bt<1>v" "bt_1v"
"at<3>v" "at_3v"
"sf<0>v" "sf_0v"
"dfv" "dfv"
"dt0v" "dt0v"
"af<2>v" "af_2v"
"at<2>v" "at_2v"
"at<0>v" "at_0v"
"dtv" "dtv"
"bf<2>v" "bf_2v"
"st<2>v" "st_2v"
"af<0>v" "af_0v"
"sf<3>v" "sf_3v"
"af<1>v" "af_1v"
"bt<0>v" "bt_0v"
"cfv" "cfv"
"bt<3>v" "bt_3v"
