HEADER
"PSFversion" "1.00"
"I10n" "TH44"
"I3n I2n I1n I0n" "Martin_Add"
"Reqv" ":1v"
"af<3>v" ":2v"
"af<2>v" ":3v"
"af<1>v" ":4v"
"af<0>v" ":5v"
"at<3>v" ":6v"
"at<2>v" ":7v"
"at<1>v" ":8v"
"at<0>v" ":9v"
"bf<3>v" ":10v"
"bf<2>v" ":11v"
"bf<1>v" ":12v"
"bf<0>v" ":13v"
"bt<3>v" ":14v"
"bt<2>v" ":15v"
"bt<1>v" ":16v"
"bt<0>v" ":17v"
"cfv" ":18v"
"ctv" ":19v"
"dfv" ":20v"
"dtv" ":21v"
"sf<3>v" ":22v"
"sf<2>v" ":23v"
"sf<1>v" ":24v"
"sf<0>v" ":25v"
"st<3>v" ":26v"
"st<2>v" ":27v"
"st<1>v" ":28v"
"st<0>v" ":29v"
