HEADER
"PSFversion" "1.00"
"at<31>v" "at_31v"
"at<30>v" "at_30v"
"at<29>v" "at_29v"
"at<28>v" "at_28v"
"at<27>v" "at_27v"
"at<26>v" "at_26v"
"at<25>v" "at_25v"
"at<24>v" "at_24v"
"at<23>v" "at_23v"
"at<22>v" "at_22v"
"at<21>v" "at_21v"
"at<20>v" "at_20v"
"at<19>v" "at_19v"
"at<18>v" "at_18v"
"at<17>v" "at_17v"
"at<16>v" "at_16v"
"at<15>v" "at_15v"
"at<14>v" "at_14v"
"at<13>v" "at_13v"
"at<12>v" "at_12v"
"at<11>v" "at_11v"
"at<10>v" "at_10v"
"at<9>v" "at_9v"
"at<8>v" "at_8v"
"at<7>v" "at_7v"
"at<6>v" "at_6v"
"at<5>v" "at_5v"
"at<4>v" "at_4v"
"at<3>v" "at_3v"
"at<2>v" "at_2v"
"at<1>v" "at_1v"
"at<0>v" "at_0v"
"bt<31>v" "bt_31v"
"bt<30>v" "bt_30v"
"bt<29>v" "bt_29v"
"bt<28>v" "bt_28v"
"bt<27>v" "bt_27v"
"bt<26>v" "bt_26v"
"bt<25>v" "bt_25v"
"bt<24>v" "bt_24v"
"bt<23>v" "bt_23v"
"bt<22>v" "bt_22v"
"bt<21>v" "bt_21v"
"bt<20>v" "bt_20v"
"bt<19>v" "bt_19v"
"bt<18>v" "bt_18v"
"bt<17>v" "bt_17v"
"bt<16>v" "bt_16v"
"bt<15>v" "bt_15v"
"bt<14>v" "bt_14v"
"bt<13>v" "bt_13v"
"bt<12>v" "bt_12v"
"bt<11>v" "bt_11v"
"bt<10>v" "bt_10v"
"bt<9>v" "bt_9v"
"bt<8>v" "bt_8v"
"bt<7>v" "bt_7v"
"bt<6>v" "bt_6v"
"bt<5>v" "bt_5v"
"bt<4>v" "bt_4v"
"bt<3>v" "bt_3v"
"bt<2>v" "bt_2v"
"bt<1>v" "bt_1v"
"bt<0>v" "bt_0v"
"sf<31>v" "sf_31v"
"sf<30>v" "sf_30v"
"sf<29>v" "sf_29v"
"sf<28>v" "sf_28v"
"sf<27>v" "sf_27v"
"sf<26>v" "sf_26v"
"sf<25>v" "sf_25v"
"sf<24>v" "sf_24v"
"bf<27>v" "bf_27v"
"bf<26>v" "bf_26v"
"bf<25>v" "bf_25v"
"bf<24>v" "bf_24v"
"sf<7>v" "sf_7v"
"sf<6>v" "sf_6v"
"sf<5>v" "sf_5v"
"sf<4>v" "sf_4v"
"sf<19>v" "sf_19v"
"sf<18>v" "sf_18v"
"sf<17>v" "sf_17v"
"sf<16>v" "sf_16v"
"sf<11>v" "sf_11v"
"sf<10>v" "sf_10v"
"sf<9>v" "sf_9v"
"sf<8>v" "sf_8v"
"sf<23>v" "sf_23v"
"sf<22>v" "sf_22v"
"sf<21>v" "sf_21v"
"sf<20>v" "sf_20v"
"sf<15>v" "sf_15v"
"sf<14>v" "sf_14v"
"sf<13>v" "sf_13v"
"sf<12>v" "sf_12v"
"st<11>v" "st_11v"
"st<10>v" "st_10v"
"st<9>v" "st_9v"
"st<8>v" "st_8v"
"st<7>v" "st_7v"
"st<6>v" "st_6v"
"st<5>v" "st_5v"
"st<4>v" "st_4v"
"st<23>v" "st_23v"
"st<22>v" "st_22v"
"st<21>v" "st_21v"
"st<20>v" "st_20v"
"st<19>v" "st_19v"
"st<18>v" "st_18v"
"st<17>v" "st_17v"
"st<16>v" "st_16v"
"st<27>v" "st_27v"
"st<26>v" "st_26v"
"st<25>v" "st_25v"
"st<24>v" "st_24v"
"Req7v" "Req7v"
"dt21v" "dt21v"
"df21v" "df21v"
"dt23v" "dt23v"
"st<15>v" "st_15v"
"st<14>v" "st_14v"
"st<13>v" "st_13v"
"st<12>v" "st_12v"
"Req0v" "Req0v"
"Req1v" "Req1v"
"df23v" "df23v"
"Req2v" "Req2v"
"Req3v" "Req3v"
"Req4v" "Req4v"
"Req5v" "Req5v"
"st<3>v" "st_3v"
"st<2>v" "st_2v"
"st<1>v" "st_1v"
"st<0>v" "st_0v"
"Req6v" "Req6v"
"bf<19>v" "bf_19v"
"bf<18>v" "bf_18v"
"bf<17>v" "bf_17v"
"bf<16>v" "bf_16v"
"bf<23>v" "bf_23v"
"bf<22>v" "bf_22v"
"bf<21>v" "bf_21v"
"bf<20>v" "bf_20v"
"st<31>v" "st_31v"
"st<30>v" "st_30v"
"st<29>v" "st_29v"
"st<28>v" "st_28v"
"af<31>v" "af_31v"
"af<30>v" "af_30v"
"af<29>v" "af_29v"
"af<28>v" "af_28v"
"af<27>v" "af_27v"
"af<26>v" "af_26v"
"af<25>v" "af_25v"
"af<24>v" "af_24v"
"af<23>v" "af_23v"
"af<22>v" "af_22v"
"af<21>v" "af_21v"
"af<20>v" "af_20v"
"af<19>v" "af_19v"
"af<18>v" "af_18v"
"af<17>v" "af_17v"
"af<16>v" "af_16v"
"af<15>v" "af_15v"
"af<14>v" "af_14v"
"af<13>v" "af_13v"
"af<12>v" "af_12v"
"af<11>v" "af_11v"
"af<10>v" "af_10v"
"af<9>v" "af_9v"
"af<8>v" "af_8v"
"af<7>v" "af_7v"
"af<6>v" "af_6v"
"af<5>v" "af_5v"
"af<4>v" "af_4v"
"af<3>v" "af_3v"
"af<2>v" "af_2v"
"af<1>v" "af_1v"
"af<0>v" "af_0v"
"bf<31>v" "bf_31v"
"bf<30>v" "bf_30v"
"bf<29>v" "bf_29v"
"bf<28>v" "bf_28v"
"bf<15>v" "bf_15v"
"bf<14>v" "bf_14v"
"bf<13>v" "bf_13v"
"bf<12>v" "bf_12v"
"bf<11>v" "bf_11v"
"bf<10>v" "bf_10v"
"bf<9>v" "bf_9v"
"bf<8>v" "bf_8v"
"bf<7>v" "bf_7v"
"bf<6>v" "bf_6v"
"bf<5>v" "bf_5v"
"bf<4>v" "bf_4v"
"bf<3>v" "bf_3v"
"bf<2>v" "bf_2v"
"bf<1>v" "bf_1v"
"bf<0>v" "bf_0v"
"net23<0>v" "net23_0v"
"net23<1>v" "net23_1v"
"net23<2>v" "net23_2v"
"net23<3>v" "net23_3v"
"dfv" "dfv"
"sf<3>v" "sf_3v"
"sf<2>v" "sf_2v"
"sf<1>v" "sf_1v"
"sf<0>v" "sf_0v"
"dtv" "dtv"
"cfv" "cfv"
"df15v" "df15v"
"dt19v" "dt19v"
"df19v" "df19v"
"ctv" "ctv"
"ReqFin2v" "ReqFin2v"
"dt15v" "dt15v"
"dt7v" "dt7v"
"df7v" "df7v"
"dt11v" "dt11v"
"df11v" "df11v"
"dt3v" "dt3v"
"df3v" "df3v"
"ReqFin1v" "ReqFin1v"
"Ackv" "Ackv"
