HEADER
"PSFversion" "1.00"
"I5n I4n I3n I2n I1n I0n I6n I7n" "Martin_Add4"
"I17<3>v" "I17_3v"
"I16n" "TH22"
"I17<2>v" "I17_2v"
"I17<1>v" "I17_1v"
"I17<0>v" "I17_0v"
"I17<3>n I17<2>n I17<1>n I17<0>n" "nand_1x"
"I15n I14n" "TH44"
"at<31>v" ":1v"
"at<30>v" ":2v"
"at<29>v" ":3v"
"at<28>v" ":4v"
"at<27>v" ":5v"
"at<26>v" ":6v"
"at<25>v" ":7v"
"at<24>v" ":8v"
"at<23>v" ":9v"
"at<22>v" ":10v"
"at<21>v" ":11v"
"at<20>v" ":12v"
"at<19>v" ":13v"
"at<18>v" ":14v"
"at<17>v" ":15v"
"at<16>v" ":16v"
"at<15>v" ":17v"
"at<14>v" ":18v"
"at<13>v" ":19v"
"at<12>v" ":20v"
"at<11>v" ":21v"
"at<10>v" ":22v"
"at<9>v" ":23v"
"at<8>v" ":24v"
"at<7>v" ":25v"
"at<6>v" ":26v"
"at<5>v" ":27v"
"at<4>v" ":28v"
"at<3>v" ":29v"
"at<2>v" ":30v"
"at<1>v" ":31v"
"at<0>v" ":32v"
"af<31>v" ":33v"
"af<30>v" ":34v"
"af<29>v" ":35v"
"af<28>v" ":36v"
"af<27>v" ":37v"
"af<26>v" ":38v"
"af<25>v" ":39v"
"af<24>v" ":40v"
"af<23>v" ":41v"
"af<22>v" ":42v"
"af<21>v" ":43v"
"af<20>v" ":44v"
"af<19>v" ":45v"
"af<18>v" ":46v"
"af<17>v" ":47v"
"af<16>v" ":48v"
"af<15>v" ":49v"
"af<14>v" ":50v"
"af<13>v" ":51v"
"af<12>v" ":52v"
"af<11>v" ":53v"
"af<10>v" ":54v"
"af<9>v" ":55v"
"af<8>v" ":56v"
"af<7>v" ":57v"
"af<6>v" ":58v"
"af<5>v" ":59v"
"af<4>v" ":60v"
"af<3>v" ":61v"
"af<2>v" ":62v"
"af<1>v" ":63v"
"af<0>v" ":64v"
"bt<31>v" ":65v"
"bt<30>v" ":66v"
"bt<29>v" ":67v"
"bt<28>v" ":68v"
"bt<27>v" ":69v"
"bt<26>v" ":70v"
"bt<25>v" ":71v"
"bt<24>v" ":72v"
"bt<23>v" ":73v"
"bt<22>v" ":74v"
"bt<21>v" ":75v"
"bt<20>v" ":76v"
"bt<19>v" ":77v"
"bt<18>v" ":78v"
"bt<17>v" ":79v"
"bt<16>v" ":80v"
"bt<15>v" ":81v"
"bt<14>v" ":82v"
"bt<13>v" ":83v"
"bt<12>v" ":84v"
"bt<11>v" ":85v"
"bt<10>v" ":86v"
"bt<9>v" ":87v"
"bt<8>v" ":88v"
"bt<7>v" ":89v"
"bt<6>v" ":90v"
"bt<5>v" ":91v"
"bt<4>v" ":92v"
"bt<3>v" ":93v"
"bt<2>v" ":94v"
"bt<1>v" ":95v"
"bt<0>v" ":96v"
"bf<31>v" ":97v"
"bf<30>v" ":98v"
"bf<29>v" ":99v"
"bf<28>v" ":100v"
"bf<27>v" ":101v"
"bf<26>v" ":102v"
"bf<25>v" ":103v"
"bf<24>v" ":104v"
"bf<23>v" ":105v"
"bf<22>v" ":106v"
"bf<21>v" ":107v"
"bf<20>v" ":108v"
"bf<19>v" ":109v"
"bf<18>v" ":110v"
"bf<17>v" ":111v"
"bf<16>v" ":112v"
"bf<15>v" ":113v"
"bf<14>v" ":114v"
"bf<13>v" ":115v"
"bf<12>v" ":116v"
"bf<11>v" ":117v"
"bf<10>v" ":118v"
"bf<9>v" ":119v"
"bf<8>v" ":120v"
"bf<7>v" ":121v"
"bf<6>v" ":122v"
"bf<5>v" ":123v"
"bf<4>v" ":124v"
"bf<3>v" ":125v"
"bf<2>v" ":126v"
"bf<1>v" ":127v"
"bf<0>v" ":128v"
"ctv" ":129v"
"cfv" ":130v"
"st<31>v" ":131v"
"st<30>v" ":132v"
"st<29>v" ":133v"
"st<28>v" ":134v"
"st<27>v" ":135v"
"st<26>v" ":136v"
"st<25>v" ":137v"
"st<24>v" ":138v"
"st<23>v" ":139v"
"st<22>v" ":140v"
"st<21>v" ":141v"
"st<20>v" ":142v"
"st<19>v" ":143v"
"st<18>v" ":144v"
"st<17>v" ":145v"
"st<16>v" ":146v"
"st<15>v" ":147v"
"st<14>v" ":148v"
"st<13>v" ":149v"
"st<12>v" ":150v"
"st<11>v" ":151v"
"st<10>v" ":152v"
"st<9>v" ":153v"
"st<8>v" ":154v"
"st<7>v" ":155v"
"st<6>v" ":156v"
"st<5>v" ":157v"
"st<4>v" ":158v"
"st<3>v" ":159v"
"st<2>v" ":160v"
"st<1>v" ":161v"
"st<0>v" ":162v"
"sf<31>v" ":163v"
"sf<30>v" ":164v"
"sf<29>v" ":165v"
"sf<28>v" ":166v"
"sf<27>v" ":167v"
"sf<26>v" ":168v"
"sf<25>v" ":169v"
"sf<24>v" ":170v"
"sf<23>v" ":171v"
"sf<22>v" ":172v"
"sf<21>v" ":173v"
"sf<20>v" ":174v"
"sf<19>v" ":175v"
"sf<18>v" ":176v"
"sf<17>v" ":177v"
"sf<16>v" ":178v"
"sf<15>v" ":179v"
"sf<14>v" ":180v"
"sf<13>v" ":181v"
"sf<12>v" ":182v"
"sf<11>v" ":183v"
"sf<10>v" ":184v"
"sf<9>v" ":185v"
"sf<8>v" ":186v"
"sf<7>v" ":187v"
"sf<6>v" ":188v"
"sf<5>v" ":189v"
"sf<4>v" ":190v"
"sf<3>v" ":191v"
"sf<2>v" ":192v"
"sf<1>v" ":193v"
"sf<0>v" ":194v"
"dfv" ":195v"
"dtv" ":196v"
"Ackv" ":197v"
