HEADER
"PSFversion" "1.00"
"net34v" "net34v"
"net35v" "net35v"
"net33v" "net33v"
"net32v" "net32v"
"net31v" "net31v"
"sfv" "sfv"
"ctv" "ctv"
"net20v" "net20v"
"bfv" "bfv"
"atv" "atv"
"cfv" "cfv"
"net13v" "net13v"
"net36v" "net36v"
"btv" "btv"
"net16v" "net16v"
"afv" "afv"
"stv" "stv"
"net28v" "net28v"
