HEADER
"PSFversion" "1.00"
"I72<31>v" "I72_31v"
"I72<30>v" "I72_30v"
"I72<29>v" "I72_29v"
"I72<28>v" "I72_28v"
"I72<27>v" "I72_27v"
"I72<26>v" "I72_26v"
"I72<25>v" "I72_25v"
"I72<24>v" "I72_24v"
"I72<23>v" "I72_23v"
"I72<22>v" "I72_22v"
"I72<21>v" "I72_21v"
"I72<20>v" "I72_20v"
"I72<19>v" "I72_19v"
"I72<18>v" "I72_18v"
"I72<17>v" "I72_17v"
"I72<16>v" "I72_16v"
"I72<15>v" "I72_15v"
"I72<14>v" "I72_14v"
"I72<13>v" "I72_13v"
"I72<12>v" "I72_12v"
"I72<11>v" "I72_11v"
"I72<10>v" "I72_10v"
"I72<9>v" "I72_9v"
"I72<8>v" "I72_8v"
"I72<7>v" "I72_7v"
"I72<6>v" "I72_6v"
"I72<5>v" "I72_5v"
"I72<4>v" "I72_4v"
"I72<3>v" "I72_3v"
"I72<2>v" "I72_2v"
"I72<1>v" "I72_1v"
"I72<0>v" "I72_0v"
"I71<31>v" "I71_31v"
"I71<30>v" "I71_30v"
"I71<29>v" "I71_29v"
"I71<28>v" "I71_28v"
"I71<27>v" "I71_27v"
"I71<26>v" "I71_26v"
"I71<25>v" "I71_25v"
"I71<24>v" "I71_24v"
"I71<23>v" "I71_23v"
"I71<22>v" "I71_22v"
"I71<21>v" "I71_21v"
"I71<20>v" "I71_20v"
"I71<19>v" "I71_19v"
"I71<18>v" "I71_18v"
"I71<17>v" "I71_17v"
"I71<16>v" "I71_16v"
"I71<15>v" "I71_15v"
"I71<14>v" "I71_14v"
"I71<13>v" "I71_13v"
"I71<12>v" "I71_12v"
"I71<11>v" "I71_11v"
"I71<10>v" "I71_10v"
"I71<9>v" "I71_9v"
"I71<8>v" "I71_8v"
"I71<7>v" "I71_7v"
"I71<6>v" "I71_6v"
"I71<5>v" "I71_5v"
"I71<4>v" "I71_4v"
"I71<3>v" "I71_3v"
"I71<2>v" "I71_2v"
"I71<1>v" "I71_1v"
"I71<0>v" "I71_0v"
"I5<31>v" "I5_31v"
"I5<30>v" "I5_30v"
"I5<29>v" "I5_29v"
"I5<28>v" "I5_28v"
"I5<27>v" "I5_27v"
"I5<26>v" "I5_26v"
"I5<25>v" "I5_25v"
"I5<24>v" "I5_24v"
"I5<23>v" "I5_23v"
"I5<22>v" "I5_22v"
"I5<21>v" "I5_21v"
"I5<20>v" "I5_20v"
"I5<19>v" "I5_19v"
"I5<18>v" "I5_18v"
"I5<17>v" "I5_17v"
"I5<16>v" "I5_16v"
"I5<15>v" "I5_15v"
"I5<14>v" "I5_14v"
"I5<13>v" "I5_13v"
"I5<12>v" "I5_12v"
"I5<11>v" "I5_11v"
"I5<10>v" "I5_10v"
"I5<9>v" "I5_9v"
"I5<8>v" "I5_8v"
"I5<7>v" "I5_7v"
"I5<6>v" "I5_6v"
"I5<5>v" "I5_5v"
"I5<4>v" "I5_4v"
"I5<3>v" "I5_3v"
"I5<2>v" "I5_2v"
"I5<1>v" "I5_1v"
"I5<0>v" "I5_0v"
"I8<31>v" "I8_31v"
"I8<30>v" "I8_30v"
"I8<29>v" "I8_29v"
"I8<28>v" "I8_28v"
"I8<27>v" "I8_27v"
"I8<26>v" "I8_26v"
"I8<25>v" "I8_25v"
"I8<24>v" "I8_24v"
"I8<23>v" "I8_23v"
"I8<22>v" "I8_22v"
"I8<21>v" "I8_21v"
"I8<20>v" "I8_20v"
"I8<19>v" "I8_19v"
"I8<18>v" "I8_18v"
"I8<17>v" "I8_17v"
"I8<16>v" "I8_16v"
"I8<15>v" "I8_15v"
"I8<14>v" "I8_14v"
"I8<13>v" "I8_13v"
"I8<12>v" "I8_12v"
"I8<11>v" "I8_11v"
"I8<10>v" "I8_10v"
"I8<9>v" "I8_9v"
"I8<8>v" "I8_8v"
"I8<7>v" "I8_7v"
"I8<6>v" "I8_6v"
"I8<5>v" "I8_5v"
"I8<4>v" "I8_4v"
"I8<3>v" "I8_3v"
"I8<2>v" "I8_2v"
"I8<1>v" "I8_1v"
"I8<0>v" "I8_0v"
"I7<31>v" "I7_31v"
"I7<30>v" "I7_30v"
"I7<29>v" "I7_29v"
"I7<28>v" "I7_28v"
"I7<27>v" "I7_27v"
"I7<26>v" "I7_26v"
"I7<25>v" "I7_25v"
"I7<24>v" "I7_24v"
"I7<23>v" "I7_23v"
"I7<22>v" "I7_22v"
"I7<21>v" "I7_21v"
"I7<20>v" "I7_20v"
"I7<19>v" "I7_19v"
"I7<18>v" "I7_18v"
"I7<17>v" "I7_17v"
"I7<16>v" "I7_16v"
"I7<15>v" "I7_15v"
"I7<14>v" "I7_14v"
"I7<13>v" "I7_13v"
"I7<12>v" "I7_12v"
"I7<11>v" "I7_11v"
"I7<10>v" "I7_10v"
"I7<9>v" "I7_9v"
"I7<8>v" "I7_8v"
"I7<7>v" "I7_7v"
"I7<6>v" "I7_6v"
"I7<5>v" "I7_5v"
"I7<4>v" "I7_4v"
"I7<3>v" "I7_3v"
"I7<2>v" "I7_2v"
"I7<1>v" "I7_1v"
"I7<0>v" "I7_0v"
"I6<31>v" "I6_31v"
"I6<30>v" "I6_30v"
"I6<29>v" "I6_29v"
"I6<28>v" "I6_28v"
"I6<27>v" "I6_27v"
"I6<26>v" "I6_26v"
"I6<25>v" "I6_25v"
"I6<24>v" "I6_24v"
"I6<23>v" "I6_23v"
"I6<22>v" "I6_22v"
"I6<21>v" "I6_21v"
"I6<20>v" "I6_20v"
"I6<19>v" "I6_19v"
"I6<18>v" "I6_18v"
"I6<17>v" "I6_17v"
"I6<16>v" "I6_16v"
"I6<15>v" "I6_15v"
"I6<14>v" "I6_14v"
"I6<13>v" "I6_13v"
"I6<12>v" "I6_12v"
"I6<11>v" "I6_11v"
"I6<10>v" "I6_10v"
"I6<9>v" "I6_9v"
"I6<8>v" "I6_8v"
"I6<7>v" "I6_7v"
"I6<6>v" "I6_6v"
"I6<5>v" "I6_5v"
"I6<4>v" "I6_4v"
"I6<3>v" "I6_3v"
"I6<2>v" "I6_2v"
"I6<1>v" "I6_1v"
"I6<0>v" "I6_0v"
"I17n I14n I13n I10n I9n I72<31>n I72<30>n I72<29>n I72<28>n I72<27>n I72<26>n I72<25>n I72<24>n I72<23>n I72<22>n I72<21>n I72<20>n I72<19>n I72<18>n I72<17>n I72<16>n I72<15>n I72<14>n I72<13>n I72<12>n I72<11>n I72<10>n I72<9>n I72<8>n I72<7>n I72<6>n I72<5>n I72<4>n I72<3>n I72<2>n I72<1>n I72<0>n I71<31>n I71<30>n I71<29>n I71<28>n I71<27>n I71<26>n I71<25>n I71<24>n I71<23>n I71<22>n I71<21>n I71<20>n I71<19>n I71<18>n I71<17>n I71<16>n I71<15>n I71<14>n I71<13>n I71<12>n I71<11>n I71<10>n I71<9>n I71<8>n I71<7>n I71<6>n I71<5>n I71<4>n I71<3>n I71<2>n I71<1>n I71<0>n I5<31>n I5<30>n I5<29>n I5<28>n I5<27>n I5<26>n I5<25>n I5<24>n I5<23>n I5<22>n I5<21>n I5<20>n I5<19>n I5<18>n I5<17>n I5<16>n I5<15>n I5<14>n I5<13>n I5<12>n I5<11>n I5<10>n I5<9>n I5<8>n I5<7>n I5<6>n I5<5>n I5<4>n I5<3>n I5<2>n I5<1>n I5<0>n I8<31>n I8<30>n I8<29>n I8<28>n I8<27>n I8<26>n I8<25>n I8<24>n I8<23>n I8<22>n I8<21>n I8<20>n I8<19>n I8<18>n I8<17>n I8<16>n I8<15>n I8<14>n I8<13>n I8<12>n I8<11>n I8<10>n I8<9>n I8<8>n I8<7>n I8<6>n I8<5>n I8<4>n I8<3>n I8<2>n I8<1>n I8<0>n I7<31>n I7<30>n I7<29>n I7<28>n I7<27>n I7<26>n I7<25>n I7<24>n I7<23>n I7<22>n I7<21>n I7<20>n I7<19>n I7<18>n I7<17>n I7<16>n I7<15>n I7<14>n I7<13>n I7<12>n I7<11>n I7<10>n I7<9>n I7<8>n I7<7>n I7<6>n I7<5>n I7<4>n I7<3>n I7<2>n I7<1>n I7<0>n I6<31>n I6<30>n I6<29>n I6<28>n I6<27>n I6<26>n I6<25>n I6<24>n I6<23>n I6<22>n I6<21>n I6<20>n I6<19>n I6<18>n I6<17>n I6<16>n I6<15>n I6<14>n I6<13>n I6<12>n I6<11>n I6<10>n I6<9>n I6<8>n I6<7>n I6<6>n I6<5>n I6<4>n I6<3>n I6<2>n I6<1>n I6<0>n" "inv_1xt"
"V1n V0n" "UCD_Analog_Parts_vdc_spectre"
"I0n" "Martin_Add32"
