HEADER
"PSFversion" "1.00"
"net43v" "net43v"
"net18v" "net18v"
"net3v" "net3v"
"net19v" "net19v"
"net21v" "net21v"
"net5v" "net5v"
"net40v" "net40v"
"net39v" "net39v"
"afv" "afv"
"cfv" "cfv"
"net11v" "net11v"
"net9v" "net9v"
"bfv" "bfv"
"dfv" "dfv"
"dfBarv" "dfBarv"
"atv" "atv"
"ctv" "ctv"
"dtv" "dtv"
"btv" "btv"
"net41v" "net41v"
"dtBarv" "dtBarv"
"net17v" "net17v"
