HEADER
"PSFversion" "1.00"
"afBar<31>v" "afBar_31v"
"afBar<30>v" "afBar_30v"
"afBar<29>v" "afBar_29v"
"afBar<28>v" "afBar_28v"
"afBar<27>v" "afBar_27v"
"afBar<26>v" "afBar_26v"
"afBar<25>v" "afBar_25v"
"afBar<24>v" "afBar_24v"
"afBar<23>v" "afBar_23v"
"afBar<22>v" "afBar_22v"
"afBar<21>v" "afBar_21v"
"afBar<20>v" "afBar_20v"
"afBar<19>v" "afBar_19v"
"afBar<18>v" "afBar_18v"
"afBar<17>v" "afBar_17v"
"afBar<16>v" "afBar_16v"
"afBar<15>v" "afBar_15v"
"afBar<14>v" "afBar_14v"
"afBar<13>v" "afBar_13v"
"afBar<12>v" "afBar_12v"
"afBar<11>v" "afBar_11v"
"afBar<10>v" "afBar_10v"
"afBar<9>v" "afBar_9v"
"afBar<8>v" "afBar_8v"
"afBar<7>v" "afBar_7v"
"afBar<6>v" "afBar_6v"
"afBar<5>v" "afBar_5v"
"afBar<4>v" "afBar_4v"
"afBar<3>v" "afBar_3v"
"afBar<2>v" "afBar_2v"
"afBar<1>v" "afBar_1v"
"afBar<0>v" "afBar_0v"
"atBar<31>v" "atBar_31v"
"atBar<30>v" "atBar_30v"
"atBar<29>v" "atBar_29v"
"atBar<28>v" "atBar_28v"
"atBar<27>v" "atBar_27v"
"atBar<26>v" "atBar_26v"
"atBar<25>v" "atBar_25v"
"atBar<24>v" "atBar_24v"
"atBar<23>v" "atBar_23v"
"atBar<22>v" "atBar_22v"
"atBar<21>v" "atBar_21v"
"atBar<20>v" "atBar_20v"
"atBar<19>v" "atBar_19v"
"atBar<18>v" "atBar_18v"
"atBar<17>v" "atBar_17v"
"atBar<16>v" "atBar_16v"
"atBar<15>v" "atBar_15v"
"atBar<14>v" "atBar_14v"
"atBar<13>v" "atBar_13v"
"atBar<12>v" "atBar_12v"
"atBar<11>v" "atBar_11v"
"atBar<10>v" "atBar_10v"
"atBar<9>v" "atBar_9v"
"atBar<8>v" "atBar_8v"
"atBar<7>v" "atBar_7v"
"atBar<6>v" "atBar_6v"
"atBar<5>v" "atBar_5v"
"atBar<4>v" "atBar_4v"
"atBar<3>v" "atBar_3v"
"atBar<2>v" "atBar_2v"
"atBar<1>v" "atBar_1v"
"atBar<0>v" "atBar_0v"
"bfBar<31>v" "bfBar_31v"
"bfBar<30>v" "bfBar_30v"
"bfBar<29>v" "bfBar_29v"
"bfBar<28>v" "bfBar_28v"
"bfBar<27>v" "bfBar_27v"
"bfBar<26>v" "bfBar_26v"
"bfBar<25>v" "bfBar_25v"
"bfBar<24>v" "bfBar_24v"
"bfBar<23>v" "bfBar_23v"
"bfBar<22>v" "bfBar_22v"
"bfBar<21>v" "bfBar_21v"
"bfBar<20>v" "bfBar_20v"
"bfBar<19>v" "bfBar_19v"
"bfBar<18>v" "bfBar_18v"
"bfBar<17>v" "bfBar_17v"
"bfBar<16>v" "bfBar_16v"
"bfBar<15>v" "bfBar_15v"
"bfBar<14>v" "bfBar_14v"
"bfBar<13>v" "bfBar_13v"
"bfBar<12>v" "bfBar_12v"
"bfBar<11>v" "bfBar_11v"
"bfBar<10>v" "bfBar_10v"
"bfBar<9>v" "bfBar_9v"
"bfBar<8>v" "bfBar_8v"
"bfBar<7>v" "bfBar_7v"
"bfBar<6>v" "bfBar_6v"
"bfBar<5>v" "bfBar_5v"
"bfBar<4>v" "bfBar_4v"
"bfBar<3>v" "bfBar_3v"
"bfBar<2>v" "bfBar_2v"
"bfBar<1>v" "bfBar_1v"
"bfBar<0>v" "bfBar_0v"
"btBar<31>v" "btBar_31v"
"btBar<30>v" "btBar_30v"
"btBar<29>v" "btBar_29v"
"btBar<28>v" "btBar_28v"
"btBar<27>v" "btBar_27v"
"btBar<26>v" "btBar_26v"
"btBar<25>v" "btBar_25v"
"btBar<24>v" "btBar_24v"
"btBar<23>v" "btBar_23v"
"btBar<22>v" "btBar_22v"
"btBar<21>v" "btBar_21v"
"btBar<20>v" "btBar_20v"
"btBar<19>v" "btBar_19v"
"btBar<18>v" "btBar_18v"
"btBar<17>v" "btBar_17v"
"btBar<16>v" "btBar_16v"
"btBar<15>v" "btBar_15v"
"btBar<14>v" "btBar_14v"
"btBar<13>v" "btBar_13v"
"btBar<12>v" "btBar_12v"
"btBar<11>v" "btBar_11v"
"btBar<10>v" "btBar_10v"
"btBar<9>v" "btBar_9v"
"btBar<8>v" "btBar_8v"
"btBar<7>v" "btBar_7v"
"btBar<6>v" "btBar_6v"
"btBar<5>v" "btBar_5v"
"btBar<4>v" "btBar_4v"
"btBar<3>v" "btBar_3v"
"btBar<2>v" "btBar_2v"
"btBar<1>v" "btBar_1v"
"btBar<0>v" "btBar_0v"
"afT<31>v" "afT_31v"
"afT<30>v" "afT_30v"
"afT<29>v" "afT_29v"
"afT<28>v" "afT_28v"
"afT<27>v" "afT_27v"
"afT<26>v" "afT_26v"
"afT<25>v" "afT_25v"
"afT<24>v" "afT_24v"
"afT<23>v" "afT_23v"
"afT<22>v" "afT_22v"
"afT<21>v" "afT_21v"
"afT<20>v" "afT_20v"
"afT<19>v" "afT_19v"
"afT<18>v" "afT_18v"
"afT<17>v" "afT_17v"
"afT<16>v" "afT_16v"
"afT<15>v" "afT_15v"
"afT<14>v" "afT_14v"
"afT<13>v" "afT_13v"
"afT<12>v" "afT_12v"
"afT<11>v" "afT_11v"
"afT<10>v" "afT_10v"
"afT<9>v" "afT_9v"
"afT<8>v" "afT_8v"
"afT<7>v" "afT_7v"
"afT<6>v" "afT_6v"
"afT<5>v" "afT_5v"
"afT<4>v" "afT_4v"
"afT<3>v" "afT_3v"
"afT<2>v" "afT_2v"
"afT<1>v" "afT_1v"
"afT<0>v" "afT_0v"
"atT<31>v" "atT_31v"
"atT<30>v" "atT_30v"
"atT<29>v" "atT_29v"
"atT<28>v" "atT_28v"
"atT<27>v" "atT_27v"
"atT<26>v" "atT_26v"
"atT<25>v" "atT_25v"
"atT<24>v" "atT_24v"
"atT<23>v" "atT_23v"
"atT<22>v" "atT_22v"
"atT<21>v" "atT_21v"
"atT<20>v" "atT_20v"
"atT<19>v" "atT_19v"
"atT<18>v" "atT_18v"
"atT<17>v" "atT_17v"
"atT<16>v" "atT_16v"
"atT<15>v" "atT_15v"
"atT<14>v" "atT_14v"
"atT<13>v" "atT_13v"
"atT<12>v" "atT_12v"
"atT<11>v" "atT_11v"
"atT<10>v" "atT_10v"
"atT<9>v" "atT_9v"
"atT<8>v" "atT_8v"
"atT<7>v" "atT_7v"
"atT<6>v" "atT_6v"
"atT<5>v" "atT_5v"
"atT<4>v" "atT_4v"
"atT<3>v" "atT_3v"
"atT<2>v" "atT_2v"
"atT<1>v" "atT_1v"
"atT<0>v" "atT_0v"
"bfT<31>v" "bfT_31v"
"bfT<30>v" "bfT_30v"
"bfT<29>v" "bfT_29v"
"bfT<28>v" "bfT_28v"
"bfT<27>v" "bfT_27v"
"bfT<26>v" "bfT_26v"
"bfT<25>v" "bfT_25v"
"bfT<24>v" "bfT_24v"
"bfT<23>v" "bfT_23v"
"bfT<22>v" "bfT_22v"
"bfT<21>v" "bfT_21v"
"bfT<20>v" "bfT_20v"
"bfT<19>v" "bfT_19v"
"bfT<18>v" "bfT_18v"
"bfT<17>v" "bfT_17v"
"bfT<16>v" "bfT_16v"
"bfT<15>v" "bfT_15v"
"bfT<14>v" "bfT_14v"
"bfT<13>v" "bfT_13v"
"bfT<12>v" "bfT_12v"
"bfT<11>v" "bfT_11v"
"bfT<10>v" "bfT_10v"
"bfT<9>v" "bfT_9v"
"bfT<8>v" "bfT_8v"
"bfT<7>v" "bfT_7v"
"bfT<6>v" "bfT_6v"
"bfT<5>v" "bfT_5v"
"bfT<4>v" "bfT_4v"
"bfT<3>v" "bfT_3v"
"bfT<2>v" "bfT_2v"
"bfT<1>v" "bfT_1v"
"bfT<0>v" "bfT_0v"
"dfTv" "dfTv"
"btT<31>v" "btT_31v"
"btT<30>v" "btT_30v"
"btT<29>v" "btT_29v"
"btT<28>v" "btT_28v"
"btT<27>v" "btT_27v"
"btT<26>v" "btT_26v"
"btT<25>v" "btT_25v"
"btT<24>v" "btT_24v"
"btT<23>v" "btT_23v"
"btT<22>v" "btT_22v"
"btT<21>v" "btT_21v"
"btT<20>v" "btT_20v"
"btT<19>v" "btT_19v"
"btT<18>v" "btT_18v"
"btT<17>v" "btT_17v"
"btT<16>v" "btT_16v"
"btT<15>v" "btT_15v"
"btT<14>v" "btT_14v"
"btT<13>v" "btT_13v"
"btT<12>v" "btT_12v"
"btT<11>v" "btT_11v"
"btT<10>v" "btT_10v"
"btT<9>v" "btT_9v"
"btT<8>v" "btT_8v"
"btT<7>v" "btT_7v"
"btT<6>v" "btT_6v"
"btT<5>v" "btT_5v"
"btT<4>v" "btT_4v"
"btT<3>v" "btT_3v"
"btT<2>v" "btT_2v"
"btT<1>v" "btT_1v"
"btT<0>v" "btT_0v"
"stBar<31>v" "stBar_31v"
"stBar<30>v" "stBar_30v"
"stBar<29>v" "stBar_29v"
"stBar<28>v" "stBar_28v"
"stBar<27>v" "stBar_27v"
"stBar<26>v" "stBar_26v"
"stBar<25>v" "stBar_25v"
"stBar<24>v" "stBar_24v"
"stBar<23>v" "stBar_23v"
"stBar<22>v" "stBar_22v"
"stBar<21>v" "stBar_21v"
"stBar<20>v" "stBar_20v"
"stBar<19>v" "stBar_19v"
"stBar<18>v" "stBar_18v"
"stBar<17>v" "stBar_17v"
"stBar<16>v" "stBar_16v"
"stBar<15>v" "stBar_15v"
"stBar<14>v" "stBar_14v"
"stBar<13>v" "stBar_13v"
"stBar<12>v" "stBar_12v"
"stBar<11>v" "stBar_11v"
"stBar<10>v" "stBar_10v"
"stBar<9>v" "stBar_9v"
"stBar<8>v" "stBar_8v"
"stBar<7>v" "stBar_7v"
"stBar<6>v" "stBar_6v"
"stBar<5>v" "stBar_5v"
"stBar<4>v" "stBar_4v"
"stBar<3>v" "stBar_3v"
"stBar<2>v" "stBar_2v"
"stBar<1>v" "stBar_1v"
"stBar<0>v" "stBar_0v"
"dtBarv" "dtBarv"
"dtTv" "dtTv"
"ReqTv" "ReqTv"
"ctBarv" "ctBarv"
"cfBarv" "cfBarv"
"sfBar<31>v" "sfBar_31v"
"sfBar<30>v" "sfBar_30v"
"sfBar<29>v" "sfBar_29v"
"sfBar<28>v" "sfBar_28v"
"sfBar<27>v" "sfBar_27v"
"sfBar<26>v" "sfBar_26v"
"sfBar<25>v" "sfBar_25v"
"sfBar<24>v" "sfBar_24v"
"sfBar<23>v" "sfBar_23v"
"sfBar<22>v" "sfBar_22v"
"sfBar<21>v" "sfBar_21v"
"sfBar<20>v" "sfBar_20v"
"sfBar<19>v" "sfBar_19v"
"sfBar<18>v" "sfBar_18v"
"sfBar<17>v" "sfBar_17v"
"sfBar<16>v" "sfBar_16v"
"sfBar<15>v" "sfBar_15v"
"sfBar<14>v" "sfBar_14v"
"sfBar<13>v" "sfBar_13v"
"sfBar<12>v" "sfBar_12v"
"sfBar<11>v" "sfBar_11v"
"sfBar<10>v" "sfBar_10v"
"sfBar<9>v" "sfBar_9v"
"sfBar<8>v" "sfBar_8v"
"sfBar<7>v" "sfBar_7v"
"sfBar<6>v" "sfBar_6v"
"sfBar<5>v" "sfBar_5v"
"sfBar<4>v" "sfBar_4v"
"sfBar<3>v" "sfBar_3v"
"sfBar<2>v" "sfBar_2v"
"sfBar<1>v" "sfBar_1v"
"sfBar<0>v" "sfBar_0v"
"ctTv" "ctTv"
"ReqBarv" "ReqBarv"
"dfBarv" "dfBarv"
"cfTv" "cfTv"
"sfT<31>v" "sfT_31v"
"sfT<30>v" "sfT_30v"
"sfT<29>v" "sfT_29v"
"sfT<28>v" "sfT_28v"
"sfT<27>v" "sfT_27v"
"sfT<26>v" "sfT_26v"
"sfT<25>v" "sfT_25v"
"sfT<24>v" "sfT_24v"
"sfT<23>v" "sfT_23v"
"sfT<22>v" "sfT_22v"
"sfT<21>v" "sfT_21v"
"sfT<20>v" "sfT_20v"
"sfT<19>v" "sfT_19v"
"sfT<18>v" "sfT_18v"
"sfT<17>v" "sfT_17v"
"sfT<16>v" "sfT_16v"
"sfT<15>v" "sfT_15v"
"sfT<14>v" "sfT_14v"
"sfT<13>v" "sfT_13v"
"sfT<12>v" "sfT_12v"
"sfT<11>v" "sfT_11v"
"sfT<10>v" "sfT_10v"
"sfT<9>v" "sfT_9v"
"sfT<8>v" "sfT_8v"
"sfT<7>v" "sfT_7v"
"sfT<6>v" "sfT_6v"
"sfT<5>v" "sfT_5v"
"sfT<4>v" "sfT_4v"
"sfT<3>v" "sfT_3v"
"sfT<2>v" "sfT_2v"
"sfT<1>v" "sfT_1v"
"sfT<0>v" "sfT_0v"
"stT<31>v" "stT_31v"
"stT<30>v" "stT_30v"
"stT<29>v" "stT_29v"
"stT<28>v" "stT_28v"
"stT<27>v" "stT_27v"
"stT<26>v" "stT_26v"
"stT<25>v" "stT_25v"
"stT<24>v" "stT_24v"
"stT<23>v" "stT_23v"
"stT<22>v" "stT_22v"
"stT<21>v" "stT_21v"
"stT<20>v" "stT_20v"
"stT<19>v" "stT_19v"
"stT<18>v" "stT_18v"
"stT<17>v" "stT_17v"
"stT<16>v" "stT_16v"
"stT<15>v" "stT_15v"
"stT<14>v" "stT_14v"
"stT<13>v" "stT_13v"
"stT<12>v" "stT_12v"
"stT<11>v" "stT_11v"
"stT<10>v" "stT_10v"
"stT<9>v" "stT_9v"
"stT<8>v" "stT_8v"
"stT<7>v" "stT_7v"
"stT<6>v" "stT_6v"
"stT<5>v" "stT_5v"
"stT<4>v" "stT_4v"
"stT<3>v" "stT_3v"
"stT<2>v" "stT_2v"
"stT<1>v" "stT_1v"
"stT<0>v" "stT_0v"
"vdd!v" "vdd!v"
"gnd!v" "0v"
"vcc!v" "vcc!v"
