HEADER
"PSFversion" "1.00"
"I0n" "Martin_Sum"
"I1n" "Martin_Carry"
"I2n" "or_1x"
"afv" ":1v"
"atv" ":2v"
"bfv" ":3v"
"btv" ":4v"
"cfv" ":5v"
"ctv" ":6v"
"dfv" ":7v"
"dtv" ":8v"
"sfv" ":9v"
"stv" ":10v"
"Reqv" ":11v"
