HEADER
"PSFversion" "1.00"
"cfv" "cfv"
"stv" "stv"
"atv" "atv"
"afv" "afv"
"btv" "btv"
"Reqv" "Reqv"
"dfv" "dfv"
"bfv" "bfv"
"ctv" "ctv"
"sfv" "sfv"
"dtv" "dtv"
