HEADER
"PSFversion" "1.00"
"M4n M7n M0n M2n" "NCSU_TechLib_FreePDK15_nfet_spectre"
"M9n M10n M8n M3n" "NCSU_TechLib_FreePDK15_pfet_spectre"
"Outv" ":1v"
"GNDv" ":2v"
"VDDHv" ":3v"
"VDDLv" ":4v"
"Inv" ":5v"
