HEADER
"PSFversion" "1.00"
"I6n" "nand3_1x"
"I7n" "inv_1x"
"Av" ":1v"
"Bv" ":2v"
"Cv" ":3v"
"Yv" ":4v"
