HEADER
"PSFversion" "1.00"
"M0n" "NCSU_TechLib_FreePDK15_pfet_spectre"
"V1n" "UCD_Analog_Parts_vpwl_spectre"
"M1n" "NCSU_TechLib_FreePDK15_nfet_spectre"
"V0n" "UCD_Analog_Parts_vdc_spectre"
