HEADER
"PSFversion" "1.00"
"V0n" "UCD_Analog_Parts_vdc_spectre"
"V3n V2n V6n" "UCD_Analog_Parts_vpwl_spectre"
"I7n" "THaC"
