HEADER
"PSFversion" "1.00"
"M6n M5n M9n M8n M7n" "NCSU_TechLib_FreePDK15_nfet_spectre"
"I8n I2n" "inv_1x"
"M2n M1n M0n M3n M4n" "NCSU_TechLib_FreePDK15_pfet_spectre"
"Av" ":1v"
"B+v" ":2v"
"C-v" ":3v"
"Yv" ":4v"
