HEADER
"PSFversion" "1.00"
"RDataAck<1>v" "RDataAck<1>v"
"RDataAck<0>v" "RDataAck<0>v"
"W2<3>v" "W2<3>v"
"W2<2>v" "W2<2>v"
"W2<1>v" "W2<1>v"
"W2<0>v" "W2<0>v"
"W1<3>v" "W1<3>v"
"W1<2>v" "W1<2>v"
"W1<1>v" "W1<1>v"
"W1<0>v" "W1<0>v"
"RW<1>v" "RW<1>v"
"RW<0>v" "RW<0>v"
"A<16>v" "A<16>v"
"A<15>v" "A<15>v"
"A<14>v" "A<14>v"
"A<13>v" "A<13>v"
"A<12>v" "A<12>v"
"A<11>v" "A<11>v"
"A<10>v" "A<10>v"
"A<9>v" "A<9>v"
"A<8>v" "A<8>v"
"A<7>v" "A<7>v"
"A<6>v" "A<6>v"
"A<5>v" "A<5>v"
"A<4>v" "A<4>v"
"A<3>v" "A<3>v"
"A<2>v" "A<2>v"
"A<1>v" "A<1>v"
"A<0>v" "A<0>v"
"VSSv" "VSSv"
"WdataAck<1>v" "WdataAck<1>v"
"WdataAck<0>v" "WdataAck<0>v"
"R2<3>v" "R2<3>v"
"R2<2>v" "R2<2>v"
"R2<1>v" "R2<1>v"
"R2<0>v" "R2<0>v"
"R1<3>v" "R1<3>v"
"R1<2>v" "R1<2>v"
"R1<1>v" "R1<1>v"
"R1<0>v" "R1<0>v"
"Ackv" "Ackv"
"VDDv" "VDDv"
