HEADER
"PSFversion" "1.00"
"I7n I6n I5n I4n I3n I2n I1n I0n" "\\6T_4x "
"B0v" "(FUNCTION or(mappedRoot(\".2@index\") mappedRoot(\".B0\")))v"
"B0v" ".B0v"
"B0v" ".\\2 v"
"B1v" "(FUNCTION or(mappedRoot(\".3@index\") mappedRoot(\".B1\")))v"
"B1v" ".B1v"
"B1v" ".\\3 v"
"A<31>v" "(FUNCTION or(mappedRoot(\".1[31]@index\") mappedRoot(\".A[31]\")))v"
"A<31>v" ".A[31]v"
"A<31>v" ".\\1[31] v"
"A<30>v" "(FUNCTION or(mappedRoot(\".1[30]@index\") mappedRoot(\".A[30]\")))v"
"A<30>v" ".A[30]v"
"A<30>v" ".\\1[30] v"
"A<29>v" "(FUNCTION or(mappedRoot(\".1[29]@index\") mappedRoot(\".A[29]\")))v"
"A<29>v" ".A[29]v"
"A<29>v" ".\\1[29] v"
"A<28>v" "(FUNCTION or(mappedRoot(\".1[28]@index\") mappedRoot(\".A[28]\")))v"
"A<28>v" ".A[28]v"
"A<28>v" ".\\1[28] v"
"A<27>v" "(FUNCTION or(mappedRoot(\".1[27]@index\") mappedRoot(\".A[27]\")))v"
"A<27>v" ".A[27]v"
"A<27>v" ".\\1[27] v"
"A<26>v" "(FUNCTION or(mappedRoot(\".1[26]@index\") mappedRoot(\".A[26]\")))v"
"A<26>v" ".A[26]v"
"A<26>v" ".\\1[26] v"
"A<25>v" "(FUNCTION or(mappedRoot(\".1[25]@index\") mappedRoot(\".A[25]\")))v"
"A<25>v" ".A[25]v"
"A<25>v" ".\\1[25] v"
"A<24>v" "(FUNCTION or(mappedRoot(\".1[24]@index\") mappedRoot(\".A[24]\")))v"
"A<24>v" ".A[24]v"
"A<24>v" ".\\1[24] v"
"A<23>v" "(FUNCTION or(mappedRoot(\".1[23]@index\") mappedRoot(\".A[23]\")))v"
"A<23>v" ".A[23]v"
"A<23>v" ".\\1[23] v"
"A<22>v" "(FUNCTION or(mappedRoot(\".1[22]@index\") mappedRoot(\".A[22]\")))v"
"A<22>v" ".A[22]v"
"A<22>v" ".\\1[22] v"
"A<21>v" "(FUNCTION or(mappedRoot(\".1[21]@index\") mappedRoot(\".A[21]\")))v"
"A<21>v" ".A[21]v"
"A<21>v" ".\\1[21] v"
"A<20>v" "(FUNCTION or(mappedRoot(\".1[20]@index\") mappedRoot(\".A[20]\")))v"
"A<20>v" ".A[20]v"
"A<20>v" ".\\1[20] v"
"A<19>v" "(FUNCTION or(mappedRoot(\".1[19]@index\") mappedRoot(\".A[19]\")))v"
"A<19>v" ".A[19]v"
"A<19>v" ".\\1[19] v"
"A<18>v" "(FUNCTION or(mappedRoot(\".1[18]@index\") mappedRoot(\".A[18]\")))v"
"A<18>v" ".A[18]v"
"A<18>v" ".\\1[18] v"
"A<17>v" "(FUNCTION or(mappedRoot(\".1[17]@index\") mappedRoot(\".A[17]\")))v"
"A<17>v" ".A[17]v"
"A<17>v" ".\\1[17] v"
"A<16>v" "(FUNCTION or(mappedRoot(\".1[16]@index\") mappedRoot(\".A[16]\")))v"
"A<16>v" ".A[16]v"
"A<16>v" ".\\1[16] v"
"A<15>v" "(FUNCTION or(mappedRoot(\".1[15]@index\") mappedRoot(\".A[15]\")))v"
"A<15>v" ".A[15]v"
"A<15>v" ".\\1[15] v"
"A<14>v" "(FUNCTION or(mappedRoot(\".1[14]@index\") mappedRoot(\".A[14]\")))v"
"A<14>v" ".A[14]v"
"A<14>v" ".\\1[14] v"
"A<13>v" "(FUNCTION or(mappedRoot(\".1[13]@index\") mappedRoot(\".A[13]\")))v"
"A<13>v" ".A[13]v"
"A<13>v" ".\\1[13] v"
"A<12>v" "(FUNCTION or(mappedRoot(\".1[12]@index\") mappedRoot(\".A[12]\")))v"
"A<12>v" ".A[12]v"
"A<12>v" ".\\1[12] v"
"A<11>v" "(FUNCTION or(mappedRoot(\".1[11]@index\") mappedRoot(\".A[11]\")))v"
"A<11>v" ".A[11]v"
"A<11>v" ".\\1[11] v"
"A<10>v" "(FUNCTION or(mappedRoot(\".1[10]@index\") mappedRoot(\".A[10]\")))v"
"A<10>v" ".A[10]v"
"A<10>v" ".\\1[10] v"
"A<9>v" "(FUNCTION or(mappedRoot(\".1[9]@index\") mappedRoot(\".A[9]\")))v"
"A<9>v" ".A[9]v"
"A<9>v" ".\\1[9] v"
"A<8>v" "(FUNCTION or(mappedRoot(\".1[8]@index\") mappedRoot(\".A[8]\")))v"
"A<8>v" ".A[8]v"
"A<8>v" ".\\1[8] v"
"A<7>v" "(FUNCTION or(mappedRoot(\".1[7]@index\") mappedRoot(\".A[7]\")))v"
"A<7>v" ".A[7]v"
"A<7>v" ".\\1[7] v"
"A<6>v" "(FUNCTION or(mappedRoot(\".1[6]@index\") mappedRoot(\".A[6]\")))v"
"A<6>v" ".A[6]v"
"A<6>v" ".\\1[6] v"
"A<5>v" "(FUNCTION or(mappedRoot(\".1[5]@index\") mappedRoot(\".A[5]\")))v"
"A<5>v" ".A[5]v"
"A<5>v" ".\\1[5] v"
"A<4>v" "(FUNCTION or(mappedRoot(\".1[4]@index\") mappedRoot(\".A[4]\")))v"
"A<4>v" ".A[4]v"
"A<4>v" ".\\1[4] v"
"A<3>v" "(FUNCTION or(mappedRoot(\".1[3]@index\") mappedRoot(\".A[3]\")))v"
"A<3>v" ".A[3]v"
"A<3>v" ".\\1[3] v"
"A<2>v" "(FUNCTION or(mappedRoot(\".1[2]@index\") mappedRoot(\".A[2]\")))v"
"A<2>v" ".A[2]v"
"A<2>v" ".\\1[2] v"
"A<1>v" "(FUNCTION or(mappedRoot(\".1[1]@index\") mappedRoot(\".A[1]\")))v"
"A<1>v" ".A[1]v"
"A<1>v" ".\\1[1] v"
"A<0>v" "(FUNCTION or(mappedRoot(\".1[0]@index\") mappedRoot(\".A[0]\")))v"
"A<0>v" ".A[0]v"
"A<0>v" ".\\1[0] v"
