HEADER
"PSFversion" "1.00"
"M5n M3n M2n M1n M0n" "NCSU_TechLib_FreePDK15_nfet_spectre"
"Gov" "(FUNCTION or(mappedRoot(\".3@index\") mappedRoot(\".Go\")))v"
"Gov" ".Gov"
"Gov" ".\\3 v"
"~R1v" "(FUNCTION or(mappedRoot(\".2@index\") mappedRoot(\".\\\\~R1 \")))v"
"~R1v" ".\\\\~R1 v"
"~R1v" ".\\2 v"
"SM1<0>v" "(FUNCTION or(mappedRoot(\".6@index\") mappedRoot(\".SM1[0]\")))v"
"SM1<0>v" ".SM1[0]v"
"SM1<0>v" ".\\6 v"
"~R0v" "(FUNCTION or(mappedRoot(\".1@index\") mappedRoot(\".\\\\~R0 \")))v"
"~R0v" ".\\\\~R0 v"
"~R0v" ".\\1 v"
"SM0<0>v" "(FUNCTION or(mappedRoot(\".4@index\") mappedRoot(\".SM0[0]\")))v"
"SM0<0>v" ".SM0[0]v"
"SM0<0>v" ".\\4 v"
"SM1<1>v" "(FUNCTION or(mappedRoot(\".7@index\") mappedRoot(\".SM1[1]\")))v"
"SM1<1>v" ".SM1[1]v"
"SM1<1>v" ".\\7 v"
"SM0<1>v" "(FUNCTION or(mappedRoot(\".5@index\") mappedRoot(\".SM0[1]\")))v"
"SM0<1>v" ".SM0[1]v"
"SM0<1>v" ".\\5 v"
