HEADER
"PSFversion" "1.00"
"IARRAY7n IARRAY6n IARRAY5n IARRAY4n IARRAY3n IARRAY2n IARRAY1n IARRAY0n" "\\6T_32x4 "
"I7n I6n I5n I4n" "\\6T_SetRead "
"B0<3>v" "(FUNCTION or(mappedRoot(\".2[3]@index\") mappedRoot(\".B0[3]\")))v"
"B0<3>v" ".B0[3]v"
"B0<3>v" ".\\2[3] v"
"B0<2>v" "(FUNCTION or(mappedRoot(\".2[2]@index\") mappedRoot(\".B0[2]\")))v"
"B0<2>v" ".B0[2]v"
"B0<2>v" ".\\2[2] v"
"B0<1>v" "(FUNCTION or(mappedRoot(\".2[1]@index\") mappedRoot(\".B0[1]\")))v"
"B0<1>v" ".B0[1]v"
"B0<1>v" ".\\2[1] v"
"B0<0>v" "(FUNCTION or(mappedRoot(\".2[0]@index\") mappedRoot(\".B0[0]\")))v"
"B0<0>v" ".B0[0]v"
"B0<0>v" ".\\2[0] v"
"S<7>v" "(FUNCTION or(mappedRoot(\".5[7]@index\") mappedRoot(\".S[7]\")))v"
"S<7>v" ".S[7]v"
"S<7>v" ".\\5[7] v"
"S<6>v" "(FUNCTION or(mappedRoot(\".5[6]@index\") mappedRoot(\".S[6]\")))v"
"S<6>v" ".S[6]v"
"S<6>v" ".\\5[6] v"
"S<5>v" "(FUNCTION or(mappedRoot(\".5[5]@index\") mappedRoot(\".S[5]\")))v"
"S<5>v" ".S[5]v"
"S<5>v" ".\\5[5] v"
"S<4>v" "(FUNCTION or(mappedRoot(\".5[4]@index\") mappedRoot(\".S[4]\")))v"
"S<4>v" ".S[4]v"
"S<4>v" ".\\5[4] v"
"S<3>v" "(FUNCTION or(mappedRoot(\".5[3]@index\") mappedRoot(\".S[3]\")))v"
"S<3>v" ".S[3]v"
"S<3>v" ".\\5[3] v"
"S<2>v" "(FUNCTION or(mappedRoot(\".5[2]@index\") mappedRoot(\".S[2]\")))v"
"S<2>v" ".S[2]v"
"S<2>v" ".\\5[2] v"
"S<1>v" "(FUNCTION or(mappedRoot(\".5[1]@index\") mappedRoot(\".S[1]\")))v"
"S<1>v" ".S[1]v"
"S<1>v" ".\\5[1] v"
"S<0>v" "(FUNCTION or(mappedRoot(\".5[0]@index\") mappedRoot(\".S[0]\")))v"
"S<0>v" ".S[0]v"
"S<0>v" ".\\5[0] v"
"B1<3>v" "(FUNCTION or(mappedRoot(\".3[3]@index\") mappedRoot(\".B1[3]\")))v"
"B1<3>v" ".B1[3]v"
"B1<3>v" ".\\3[3] v"
"B1<2>v" "(FUNCTION or(mappedRoot(\".3[2]@index\") mappedRoot(\".B1[2]\")))v"
"B1<2>v" ".B1[2]v"
"B1<2>v" ".\\3[2] v"
"B1<1>v" "(FUNCTION or(mappedRoot(\".3[1]@index\") mappedRoot(\".B1[1]\")))v"
"B1<1>v" ".B1[1]v"
"B1<1>v" ".\\3[1] v"
"B1<0>v" "(FUNCTION or(mappedRoot(\".3[0]@index\") mappedRoot(\".B1[0]\")))v"
"B1<0>v" ".B1[0]v"
"B1<0>v" ".\\3[0] v"
"W0<3>v" "(FUNCTION or(mappedRoot(\".6[3]@index\") mappedRoot(\".W0[3]\")))v"
"W0<3>v" ".W0[3]v"
"W0<3>v" ".\\6[3] v"
"W0<2>v" "(FUNCTION or(mappedRoot(\".6[2]@index\") mappedRoot(\".W0[2]\")))v"
"W0<2>v" ".W0[2]v"
"W0<2>v" ".\\6[2] v"
"W0<1>v" "(FUNCTION or(mappedRoot(\".6[1]@index\") mappedRoot(\".W0[1]\")))v"
"W0<1>v" ".W0[1]v"
"W0<1>v" ".\\6[1] v"
"W0<0>v" "(FUNCTION or(mappedRoot(\".6[0]@index\") mappedRoot(\".W0[0]\")))v"
"W0<0>v" ".W0[0]v"
"W0<0>v" ".\\6[0] v"
"W1<3>v" "(FUNCTION or(mappedRoot(\".7[3]@index\") mappedRoot(\".W1[3]\")))v"
"W1<3>v" ".W1[3]v"
"W1<3>v" ".\\7[3] v"
"W1<2>v" "(FUNCTION or(mappedRoot(\".7[2]@index\") mappedRoot(\".W1[2]\")))v"
"W1<2>v" ".W1[2]v"
"W1<2>v" ".\\7[2] v"
"W1<1>v" "(FUNCTION or(mappedRoot(\".7[1]@index\") mappedRoot(\".W1[1]\")))v"
"W1<1>v" ".W1[1]v"
"W1<1>v" ".\\7[1] v"
"W1<0>v" "(FUNCTION or(mappedRoot(\".7[0]@index\") mappedRoot(\".W1[0]\")))v"
"W1<0>v" ".W1[0]v"
"W1<0>v" ".\\7[0] v"
"~R0<3>v" "(FUNCTION or(mappedRoot(\".8[3]@index\") mappedRoot(\".\\\\~R0 [3]\")))v"
"~R0<3>v" ".\\\\~R0 [3]v"
"~R0<3>v" ".\\8[3] v"
"~R0<2>v" "(FUNCTION or(mappedRoot(\".8[2]@index\") mappedRoot(\".\\\\~R0 [2]\")))v"
"~R0<2>v" ".\\\\~R0 [2]v"
"~R0<2>v" ".\\8[2] v"
"~R0<1>v" "(FUNCTION or(mappedRoot(\".8[1]@index\") mappedRoot(\".\\\\~R0 [1]\")))v"
"~R0<1>v" ".\\\\~R0 [1]v"
"~R0<1>v" ".\\8[1] v"
"~R0<0>v" "(FUNCTION or(mappedRoot(\".8[0]@index\") mappedRoot(\".\\\\~R0 [0]\")))v"
"~R0<0>v" ".\\\\~R0 [0]v"
"~R0<0>v" ".\\8[0] v"
"Gov" "(FUNCTION or(mappedRoot(\".4@index\") mappedRoot(\".Go\")))v"
"Gov" ".Gov"
"Gov" ".\\4 v"
"~R1<3>v" "(FUNCTION or(mappedRoot(\".9[3]@index\") mappedRoot(\".\\\\~R1 [3]\")))v"
"~R1<3>v" ".\\\\~R1 [3]v"
"~R1<3>v" ".\\9[3] v"
"~R1<2>v" "(FUNCTION or(mappedRoot(\".9[2]@index\") mappedRoot(\".\\\\~R1 [2]\")))v"
"~R1<2>v" ".\\\\~R1 [2]v"
"~R1<2>v" ".\\9[2] v"
"~R1<1>v" "(FUNCTION or(mappedRoot(\".9[1]@index\") mappedRoot(\".\\\\~R1 [1]\")))v"
"~R1<1>v" ".\\\\~R1 [1]v"
"~R1<1>v" ".\\9[1] v"
"~R1<0>v" "(FUNCTION or(mappedRoot(\".9[0]@index\") mappedRoot(\".\\\\~R1 [0]\")))v"
"~R1<0>v" ".\\\\~R1 [0]v"
"~R1<0>v" ".\\9[0] v"
"A<63>v" "(FUNCTION or(mappedRoot(\".1[63]@index\") mappedRoot(\".A[63]\")))v"
"A<63>v" ".A[63]v"
"A<63>v" ".\\1[63] v"
"A<62>v" "(FUNCTION or(mappedRoot(\".1[62]@index\") mappedRoot(\".A[62]\")))v"
"A<62>v" ".A[62]v"
"A<62>v" ".\\1[62] v"
"A<61>v" "(FUNCTION or(mappedRoot(\".1[61]@index\") mappedRoot(\".A[61]\")))v"
"A<61>v" ".A[61]v"
"A<61>v" ".\\1[61] v"
"A<60>v" "(FUNCTION or(mappedRoot(\".1[60]@index\") mappedRoot(\".A[60]\")))v"
"A<60>v" ".A[60]v"
"A<60>v" ".\\1[60] v"
"A<59>v" "(FUNCTION or(mappedRoot(\".1[59]@index\") mappedRoot(\".A[59]\")))v"
"A<59>v" ".A[59]v"
"A<59>v" ".\\1[59] v"
"A<58>v" "(FUNCTION or(mappedRoot(\".1[58]@index\") mappedRoot(\".A[58]\")))v"
"A<58>v" ".A[58]v"
"A<58>v" ".\\1[58] v"
"A<57>v" "(FUNCTION or(mappedRoot(\".1[57]@index\") mappedRoot(\".A[57]\")))v"
"A<57>v" ".A[57]v"
"A<57>v" ".\\1[57] v"
"A<56>v" "(FUNCTION or(mappedRoot(\".1[56]@index\") mappedRoot(\".A[56]\")))v"
"A<56>v" ".A[56]v"
"A<56>v" ".\\1[56] v"
"A<55>v" "(FUNCTION or(mappedRoot(\".1[55]@index\") mappedRoot(\".A[55]\")))v"
"A<55>v" ".A[55]v"
"A<55>v" ".\\1[55] v"
"A<54>v" "(FUNCTION or(mappedRoot(\".1[54]@index\") mappedRoot(\".A[54]\")))v"
"A<54>v" ".A[54]v"
"A<54>v" ".\\1[54] v"
"A<53>v" "(FUNCTION or(mappedRoot(\".1[53]@index\") mappedRoot(\".A[53]\")))v"
"A<53>v" ".A[53]v"
"A<53>v" ".\\1[53] v"
"A<52>v" "(FUNCTION or(mappedRoot(\".1[52]@index\") mappedRoot(\".A[52]\")))v"
"A<52>v" ".A[52]v"
"A<52>v" ".\\1[52] v"
"A<51>v" "(FUNCTION or(mappedRoot(\".1[51]@index\") mappedRoot(\".A[51]\")))v"
"A<51>v" ".A[51]v"
"A<51>v" ".\\1[51] v"
"A<50>v" "(FUNCTION or(mappedRoot(\".1[50]@index\") mappedRoot(\".A[50]\")))v"
"A<50>v" ".A[50]v"
"A<50>v" ".\\1[50] v"
"A<49>v" "(FUNCTION or(mappedRoot(\".1[49]@index\") mappedRoot(\".A[49]\")))v"
"A<49>v" ".A[49]v"
"A<49>v" ".\\1[49] v"
"A<48>v" "(FUNCTION or(mappedRoot(\".1[48]@index\") mappedRoot(\".A[48]\")))v"
"A<48>v" ".A[48]v"
"A<48>v" ".\\1[48] v"
"A<47>v" "(FUNCTION or(mappedRoot(\".1[47]@index\") mappedRoot(\".A[47]\")))v"
"A<47>v" ".A[47]v"
"A<47>v" ".\\1[47] v"
"A<46>v" "(FUNCTION or(mappedRoot(\".1[46]@index\") mappedRoot(\".A[46]\")))v"
"A<46>v" ".A[46]v"
"A<46>v" ".\\1[46] v"
"A<45>v" "(FUNCTION or(mappedRoot(\".1[45]@index\") mappedRoot(\".A[45]\")))v"
"A<45>v" ".A[45]v"
"A<45>v" ".\\1[45] v"
"A<44>v" "(FUNCTION or(mappedRoot(\".1[44]@index\") mappedRoot(\".A[44]\")))v"
"A<44>v" ".A[44]v"
"A<44>v" ".\\1[44] v"
"A<43>v" "(FUNCTION or(mappedRoot(\".1[43]@index\") mappedRoot(\".A[43]\")))v"
"A<43>v" ".A[43]v"
"A<43>v" ".\\1[43] v"
"A<42>v" "(FUNCTION or(mappedRoot(\".1[42]@index\") mappedRoot(\".A[42]\")))v"
"A<42>v" ".A[42]v"
"A<42>v" ".\\1[42] v"
"A<41>v" "(FUNCTION or(mappedRoot(\".1[41]@index\") mappedRoot(\".A[41]\")))v"
"A<41>v" ".A[41]v"
"A<41>v" ".\\1[41] v"
"A<40>v" "(FUNCTION or(mappedRoot(\".1[40]@index\") mappedRoot(\".A[40]\")))v"
"A<40>v" ".A[40]v"
"A<40>v" ".\\1[40] v"
"A<39>v" "(FUNCTION or(mappedRoot(\".1[39]@index\") mappedRoot(\".A[39]\")))v"
"A<39>v" ".A[39]v"
"A<39>v" ".\\1[39] v"
"A<38>v" "(FUNCTION or(mappedRoot(\".1[38]@index\") mappedRoot(\".A[38]\")))v"
"A<38>v" ".A[38]v"
"A<38>v" ".\\1[38] v"
"A<37>v" "(FUNCTION or(mappedRoot(\".1[37]@index\") mappedRoot(\".A[37]\")))v"
"A<37>v" ".A[37]v"
"A<37>v" ".\\1[37] v"
"A<36>v" "(FUNCTION or(mappedRoot(\".1[36]@index\") mappedRoot(\".A[36]\")))v"
"A<36>v" ".A[36]v"
"A<36>v" ".\\1[36] v"
"A<35>v" "(FUNCTION or(mappedRoot(\".1[35]@index\") mappedRoot(\".A[35]\")))v"
"A<35>v" ".A[35]v"
"A<35>v" ".\\1[35] v"
"A<34>v" "(FUNCTION or(mappedRoot(\".1[34]@index\") mappedRoot(\".A[34]\")))v"
"A<34>v" ".A[34]v"
"A<34>v" ".\\1[34] v"
"A<33>v" "(FUNCTION or(mappedRoot(\".1[33]@index\") mappedRoot(\".A[33]\")))v"
"A<33>v" ".A[33]v"
"A<33>v" ".\\1[33] v"
"A<32>v" "(FUNCTION or(mappedRoot(\".1[32]@index\") mappedRoot(\".A[32]\")))v"
"A<32>v" ".A[32]v"
"A<32>v" ".\\1[32] v"
"A<31>v" "(FUNCTION or(mappedRoot(\".1[31]@index\") mappedRoot(\".A[31]\")))v"
"A<31>v" ".A[31]v"
"A<31>v" ".\\1[31] v"
"A<30>v" "(FUNCTION or(mappedRoot(\".1[30]@index\") mappedRoot(\".A[30]\")))v"
"A<30>v" ".A[30]v"
"A<30>v" ".\\1[30] v"
"A<29>v" "(FUNCTION or(mappedRoot(\".1[29]@index\") mappedRoot(\".A[29]\")))v"
"A<29>v" ".A[29]v"
"A<29>v" ".\\1[29] v"
"A<28>v" "(FUNCTION or(mappedRoot(\".1[28]@index\") mappedRoot(\".A[28]\")))v"
"A<28>v" ".A[28]v"
"A<28>v" ".\\1[28] v"
"A<27>v" "(FUNCTION or(mappedRoot(\".1[27]@index\") mappedRoot(\".A[27]\")))v"
"A<27>v" ".A[27]v"
"A<27>v" ".\\1[27] v"
"A<26>v" "(FUNCTION or(mappedRoot(\".1[26]@index\") mappedRoot(\".A[26]\")))v"
"A<26>v" ".A[26]v"
"A<26>v" ".\\1[26] v"
"A<25>v" "(FUNCTION or(mappedRoot(\".1[25]@index\") mappedRoot(\".A[25]\")))v"
"A<25>v" ".A[25]v"
"A<25>v" ".\\1[25] v"
"A<24>v" "(FUNCTION or(mappedRoot(\".1[24]@index\") mappedRoot(\".A[24]\")))v"
"A<24>v" ".A[24]v"
"A<24>v" ".\\1[24] v"
"A<23>v" "(FUNCTION or(mappedRoot(\".1[23]@index\") mappedRoot(\".A[23]\")))v"
"A<23>v" ".A[23]v"
"A<23>v" ".\\1[23] v"
"A<22>v" "(FUNCTION or(mappedRoot(\".1[22]@index\") mappedRoot(\".A[22]\")))v"
"A<22>v" ".A[22]v"
"A<22>v" ".\\1[22] v"
"A<21>v" "(FUNCTION or(mappedRoot(\".1[21]@index\") mappedRoot(\".A[21]\")))v"
"A<21>v" ".A[21]v"
"A<21>v" ".\\1[21] v"
"A<20>v" "(FUNCTION or(mappedRoot(\".1[20]@index\") mappedRoot(\".A[20]\")))v"
"A<20>v" ".A[20]v"
"A<20>v" ".\\1[20] v"
"A<19>v" "(FUNCTION or(mappedRoot(\".1[19]@index\") mappedRoot(\".A[19]\")))v"
"A<19>v" ".A[19]v"
"A<19>v" ".\\1[19] v"
"A<18>v" "(FUNCTION or(mappedRoot(\".1[18]@index\") mappedRoot(\".A[18]\")))v"
"A<18>v" ".A[18]v"
"A<18>v" ".\\1[18] v"
"A<17>v" "(FUNCTION or(mappedRoot(\".1[17]@index\") mappedRoot(\".A[17]\")))v"
"A<17>v" ".A[17]v"
"A<17>v" ".\\1[17] v"
"A<16>v" "(FUNCTION or(mappedRoot(\".1[16]@index\") mappedRoot(\".A[16]\")))v"
"A<16>v" ".A[16]v"
"A<16>v" ".\\1[16] v"
"A<15>v" "(FUNCTION or(mappedRoot(\".1[15]@index\") mappedRoot(\".A[15]\")))v"
"A<15>v" ".A[15]v"
"A<15>v" ".\\1[15] v"
"A<14>v" "(FUNCTION or(mappedRoot(\".1[14]@index\") mappedRoot(\".A[14]\")))v"
"A<14>v" ".A[14]v"
"A<14>v" ".\\1[14] v"
"A<13>v" "(FUNCTION or(mappedRoot(\".1[13]@index\") mappedRoot(\".A[13]\")))v"
"A<13>v" ".A[13]v"
"A<13>v" ".\\1[13] v"
"A<12>v" "(FUNCTION or(mappedRoot(\".1[12]@index\") mappedRoot(\".A[12]\")))v"
"A<12>v" ".A[12]v"
"A<12>v" ".\\1[12] v"
"A<11>v" "(FUNCTION or(mappedRoot(\".1[11]@index\") mappedRoot(\".A[11]\")))v"
"A<11>v" ".A[11]v"
"A<11>v" ".\\1[11] v"
"A<10>v" "(FUNCTION or(mappedRoot(\".1[10]@index\") mappedRoot(\".A[10]\")))v"
"A<10>v" ".A[10]v"
"A<10>v" ".\\1[10] v"
"A<9>v" "(FUNCTION or(mappedRoot(\".1[9]@index\") mappedRoot(\".A[9]\")))v"
"A<9>v" ".A[9]v"
"A<9>v" ".\\1[9] v"
"A<8>v" "(FUNCTION or(mappedRoot(\".1[8]@index\") mappedRoot(\".A[8]\")))v"
"A<8>v" ".A[8]v"
"A<8>v" ".\\1[8] v"
"A<7>v" "(FUNCTION or(mappedRoot(\".1[7]@index\") mappedRoot(\".A[7]\")))v"
"A<7>v" ".A[7]v"
"A<7>v" ".\\1[7] v"
"A<6>v" "(FUNCTION or(mappedRoot(\".1[6]@index\") mappedRoot(\".A[6]\")))v"
"A<6>v" ".A[6]v"
"A<6>v" ".\\1[6] v"
"A<5>v" "(FUNCTION or(mappedRoot(\".1[5]@index\") mappedRoot(\".A[5]\")))v"
"A<5>v" ".A[5]v"
"A<5>v" ".\\1[5] v"
"A<4>v" "(FUNCTION or(mappedRoot(\".1[4]@index\") mappedRoot(\".A[4]\")))v"
"A<4>v" ".A[4]v"
"A<4>v" ".\\1[4] v"
"A<3>v" "(FUNCTION or(mappedRoot(\".1[3]@index\") mappedRoot(\".A[3]\")))v"
"A<3>v" ".A[3]v"
"A<3>v" ".\\1[3] v"
"A<2>v" "(FUNCTION or(mappedRoot(\".1[2]@index\") mappedRoot(\".A[2]\")))v"
"A<2>v" ".A[2]v"
"A<2>v" ".\\1[2] v"
"A<1>v" "(FUNCTION or(mappedRoot(\".1[1]@index\") mappedRoot(\".A[1]\")))v"
"A<1>v" ".A[1]v"
"A<1>v" ".\\1[1] v"
"A<0>v" "(FUNCTION or(mappedRoot(\".1[0]@index\") mappedRoot(\".A[0]\")))v"
"A<0>v" ".A[0]v"
"A<0>v" ".\\1[0] v"
