HEADER
"PSFversion" "1.00"
"dstv" "(FUNCTION minus(root(\"src\")))v"
"srcv" ":1v"
