HEADER
"PSFversion" "1.00"
"A<15>v" "A[15]v"
"A<14>v" "A[14]v"
"A<13>v" "A[13]v"
"A<12>v" "A[12]v"
"A<11>v" "A[11]v"
"A<10>v" "A[10]v"
"A<9>v" "A[9]v"
"A<8>v" "A[8]v"
"A<7>v" "A[7]v"
"A<6>v" "A[6]v"
"A<5>v" "A[5]v"
"A<4>v" "A[4]v"
"A<3>v" "A[3]v"
"A<2>v" "A[2]v"
"A<1>v" "A[1]v"
"A<0>v" "A[0]v"
"1of4_2<0>v" "\\1of4_2 [0]v"
"1of4_1<2>v" "\\1of4_1 [2]v"
"1of4_2<3>v" "\\1of4_2 [3]v"
"1of4_1<3>v" "\\1of4_1 [3]v"
"1of4_1<1>v" "\\1of4_1 [1]v"
"1of4_1<0>v" "\\1of4_1 [0]v"
"1of4_2<2>v" "\\1of4_2 [2]v"
"1of4_2<1>v" "\\1of4_2 [1]v"
"A<15>v" "A[15]v"
"A<14>v" "A[14]v"
"A<13>v" "A[13]v"
"A<12>v" "A[12]v"
"A<11>v" "A[11]v"
"A<10>v" "A[10]v"
"A<9>v" "A[9]v"
"A<8>v" "A[8]v"
"A<7>v" "A[7]v"
"A<6>v" "A[6]v"
"A<5>v" "A[5]v"
"A<4>v" "A[4]v"
"A<3>v" "A[3]v"
"A<2>v" "A[2]v"
"A<1>v" "A[1]v"
"A<0>v" "A[0]v"
"1of4_2<0>v" "\\1of4_2 [0]v"
"1of4_1<2>v" "\\1of4_1 [2]v"
"1of4_2<3>v" "\\1of4_2 [3]v"
"1of4_1<3>v" "\\1of4_1 [3]v"
"1of4_1<1>v" "\\1of4_1 [1]v"
"1of4_1<0>v" "\\1of4_1 [0]v"
"1of4_2<2>v" "\\1of4_2 [2]v"
"1of4_2<1>v" "\\1of4_2 [1]v"
