HEADER
"PSFversion" "1.00"
"ICHUNKn" "\\6T_CHUNK "
"I84n" "\\6T_DATAb "
"I85n" "\\6T_DEMUX_ "
"V0n V1n" "analogLib_vdc_spectre"
"I83n" "16nm_Tests_Write_Testbench_verilog_verilog"
