HEADER
"PSFversion" "1.00"
"W1<3>v" "W1[3]v"
"W1<2>v" "W1[2]v"
"W1<1>v" "W1[1]v"
"W1<0>v" "W1[0]v"
"B1<3>v" "B1[3]v"
"B1<2>v" "B1[2]v"
"B1<1>v" "B1[1]v"
"B1<0>v" "B1[0]v"
"A<16>v" "A[16]v"
"A<15>v" "A[15]v"
"A<14>v" "A[14]v"
"A<13>v" "A[13]v"
"A<12>v" "A[12]v"
"A<11>v" "A[11]v"
"A<10>v" "A[10]v"
"A<9>v" "A[9]v"
"A<8>v" "A[8]v"
"A<7>v" "A[7]v"
"A<6>v" "A[6]v"
"A<5>v" "A[5]v"
"A<4>v" "A[4]v"
"A<3>v" "A[3]v"
"A<2>v" "A[2]v"
"A<1>v" "A[1]v"
"A<0>v" "A[0]v"
"R2<3>v" "R2[3]v"
"R2<2>v" "R2[2]v"
"R2<1>v" "R2[1]v"
"R2<0>v" "R2[0]v"
"W0<3>v" "W0[3]v"
"W0<2>v" "W0[2]v"
"W0<1>v" "W0[1]v"
"W0<0>v" "W0[0]v"
"WD2<3>v" "WD2[3]v"
"WD2<2>v" "WD2[2]v"
"WD2<1>v" "WD2[1]v"
"WD2<0>v" "WD2[0]v"
"RDataAck<1>v" "RDataAck[1]v"
"RDataAck<0>v" "RDataAck[0]v"
"RW<1>v" "RW[1]v"
"RW<0>v" "RW[0]v"
"WdataAck<1>v" "WdataAck[1]v"
"WdataAck<0>v" "WdataAck[0]v"
"net32<0>v" "net32[0]v"
"net32<1>v" "net32[1]v"
"net32<2>v" "net32[2]v"
"net32<3>v" "net32[3]v"
"net33<0>v" "net33[0]v"
"net33<1>v" "net33[1]v"
"net33<2>v" "net33[2]v"
"net33<3>v" "net33[3]v"
"B0<3>v" "B0[3]v"
"B0<2>v" "B0[2]v"
"B0<1>v" "B0[1]v"
"B0<0>v" "B0[0]v"
"Aline<63>v" "Aline[63]v"
"Aline<62>v" "Aline[62]v"
"Aline<61>v" "Aline[61]v"
"Aline<60>v" "Aline[60]v"
"Aline<59>v" "Aline[59]v"
"Aline<58>v" "Aline[58]v"
"Aline<57>v" "Aline[57]v"
"Aline<56>v" "Aline[56]v"
"Aline<55>v" "Aline[55]v"
"Aline<54>v" "Aline[54]v"
"Aline<53>v" "Aline[53]v"
"Aline<52>v" "Aline[52]v"
"Aline<51>v" "Aline[51]v"
"Aline<50>v" "Aline[50]v"
"Aline<49>v" "Aline[49]v"
"Aline<48>v" "Aline[48]v"
"Aline<47>v" "Aline[47]v"
"Aline<46>v" "Aline[46]v"
"Aline<45>v" "Aline[45]v"
"Aline<44>v" "Aline[44]v"
"Aline<43>v" "Aline[43]v"
"Aline<42>v" "Aline[42]v"
"Aline<41>v" "Aline[41]v"
"Aline<40>v" "Aline[40]v"
"Aline<39>v" "Aline[39]v"
"Aline<38>v" "Aline[38]v"
"Aline<37>v" "Aline[37]v"
"Aline<36>v" "Aline[36]v"
"Aline<35>v" "Aline[35]v"
"Aline<34>v" "Aline[34]v"
"Aline<33>v" "Aline[33]v"
"Aline<32>v" "Aline[32]v"
"Aline<31>v" "Aline[31]v"
"Aline<30>v" "Aline[30]v"
"Aline<29>v" "Aline[29]v"
"Aline<28>v" "Aline[28]v"
"Aline<27>v" "Aline[27]v"
"Aline<26>v" "Aline[26]v"
"Aline<25>v" "Aline[25]v"
"Aline<24>v" "Aline[24]v"
"Aline<23>v" "Aline[23]v"
"Aline<22>v" "Aline[22]v"
"Aline<21>v" "Aline[21]v"
"Aline<20>v" "Aline[20]v"
"Aline<19>v" "Aline[19]v"
"Aline<18>v" "Aline[18]v"
"Aline<17>v" "Aline[17]v"
"Aline<16>v" "Aline[16]v"
"Aline<15>v" "Aline[15]v"
"Aline<14>v" "Aline[14]v"
"Aline<13>v" "Aline[13]v"
"Aline<12>v" "Aline[12]v"
"Aline<11>v" "Aline[11]v"
"Aline<10>v" "Aline[10]v"
"Aline<9>v" "Aline[9]v"
"Aline<8>v" "Aline[8]v"
"Aline<7>v" "Aline[7]v"
"Aline<6>v" "Aline[6]v"
"Aline<5>v" "Aline[5]v"
"Aline<4>v" "Aline[4]v"
"Aline<3>v" "Aline[3]v"
"Aline<2>v" "Aline[2]v"
"Aline<1>v" "Aline[1]v"
"Aline<0>v" "Aline[0]v"
"S<7>v" "S[7]v"
"S<6>v" "S[6]v"
"S<5>v" "S[5]v"
"S<4>v" "S[4]v"
"S<3>v" "S[3]v"
"S<2>v" "S[2]v"
"S<1>v" "S[1]v"
"S<0>v" "S[0]v"
"WD1<3>v" "WD1[3]v"
"WD1<2>v" "WD1[2]v"
"WD1<1>v" "WD1[1]v"
"WD1<0>v" "WD1[0]v"
"R1<3>v" "R1[3]v"
"R1<2>v" "R1[2]v"
"R1<1>v" "R1[1]v"
"R1<0>v" "R1[0]v"
"gnd!v" "cds_globals.\\gnd! v"
"vdd!v" "cds_globals.\\vdd! v"
"vcc!v" "cds_globals.\\vcc! v"
