HEADER
"PSFversion" "1.00"
"X<11>v" "X[11]v"
"X<10>v" "X[10]v"
"X<9>v" "X[9]v"
"X<8>v" "X[8]v"
"X<7>v" "X[7]v"
"X<6>v" "X[6]v"
"X<5>v" "X[5]v"
"X<4>v" "X[4]v"
"X<3>v" "X[3]v"
"X<2>v" "X[2]v"
"X<1>v" "X[1]v"
"X<0>v" "X[0]v"
"X<15>v" "X[15]v"
"X<14>v" "X[14]v"
"X<13>v" "X[13]v"
"X<12>v" "X[12]v"
"X<11>v" "X[11]v"
"X<10>v" "X[10]v"
"X<9>v" "X[9]v"
"X<8>v" "X[8]v"
"X<7>v" "X[7]v"
"X<6>v" "X[6]v"
"X<5>v" "X[5]v"
"X<4>v" "X[4]v"
"X<3>v" "X[3]v"
"X<2>v" "X[2]v"
"X<1>v" "X[1]v"
"X<0>v" "X[0]v"
"X<15>v" "X[15]v"
"X<14>v" "X[14]v"
"X<13>v" "X[13]v"
"X<12>v" "X[12]v"
