HEADER
"PSFversion" "1.00"
"I32n I5n I35n" "inv_1x"
"M16n M3n M4n M5n" "NCSU_TechLib_FreePDK15_nfet_spectre"
"M10n M1n" "NCSU_TechLib_FreePDK15_pfet_spectre"
"I6n" "nand_1x"
"I9n" "or_1x"
"I2n I33n" "inv_weak_1x"
"I12n I30n" "TH22"
"Aiv" "(FUNCTION or(mappedRoot(\".1@index\") mappedRoot(\".Ai\")))v"
"Aiv" ".Aiv"
"Aiv" ".\\1 v"
"R1i+1v" "(FUNCTION or(mappedRoot(\".3@index\") mappedRoot(\".\\\\R1i+1 \")))v"
"R1i+1v" ".\\\\R1i+1 v"
"R1i+1v" ".\\3 v"
"R0iv" "(FUNCTION or(mappedRoot(\".5@index\") mappedRoot(\".R0i\")))v"
"R0iv" ".R0iv"
"R0iv" ".\\5 v"
"R1iv" "(FUNCTION or(mappedRoot(\".6@index\") mappedRoot(\".R1i\")))v"
"R1iv" ".R1iv"
"R1iv" ".\\6 v"
"Ai+1v" "(FUNCTION or(mappedRoot(\".4@index\") mappedRoot(\".\\\\Ai+1 \")))v"
"Ai+1v" ".\\\\Ai+1 v"
"Ai+1v" ".\\4 v"
"R0i+1v" "(FUNCTION or(mappedRoot(\".2@index\") mappedRoot(\".\\\\R0i+1 \")))v"
"R0i+1v" ".\\\\R0i+1 v"
"R0i+1v" ".\\2 v"
