HEADER
"PSFversion" "1.00"
"M8n M5n M6n M9n M7n" "NCSU_TechLib_FreePDK15_nfet_spectre"
"I2n I9n" "inv_1x"
"M4n M3n M0n M2n M1n" "NCSU_TechLib_FreePDK15_pfet_spectre"
"Av" "(FUNCTION or(mappedRoot(\".2@index\") mappedRoot(\".A\")))v"
"Av" ".Av"
"Av" ".\\2 v"
"Yv" "(FUNCTION or(mappedRoot(\".1@index\") mappedRoot(\".Y\")))v"
"Yv" ".Yv"
"Yv" ".\\1 v"
"B+v" "(FUNCTION or(mappedRoot(\".3@index\") mappedRoot(\".\\\\B+ \")))v"
"B+v" ".\\\\B+ v"
"B+v" ".\\3 v"
"C-v" "(FUNCTION or(mappedRoot(\".4@index\") mappedRoot(\".\\\\C- \")))v"
"C-v" ".\\\\C- v"
"C-v" ".\\4 v"
