HEADER
"PSFversion" "1.00"
"__NEXT_FILE__" "MC_6TWrite_Test"
