HEADER
"PSFversion" "1.00"
"net1v" "net1v"
"Write_Address<19>v" "Write_Address_19v"
"Write_Address<18>v" "Write_Address_18v"
"Write_Address<17>v" "Write_Address_17v"
"Write_Address<16>v" "Write_Address_16v"
"Write_Address<15>v" "Write_Address_15v"
"Write_Address<14>v" "Write_Address_14v"
"Write_Address<13>v" "Write_Address_13v"
"Write_Address<12>v" "Write_Address_12v"
"Write_Address<11>v" "Write_Address_11v"
"Write_Address<10>v" "Write_Address_10v"
"Write_Address<9>v" "Write_Address_9v"
"Write_Address<8>v" "Write_Address_8v"
"Write_Address<7>v" "Write_Address_7v"
"Write_Address<6>v" "Write_Address_6v"
"Write_Address<5>v" "Write_Address_5v"
"Write_Address<4>v" "Write_Address_4v"
"Write_Address<3>v" "Write_Address_3v"
"Write_Address<2>v" "Write_Address_2v"
"Write_Address<1>v" "Write_Address_1v"
"Write_Address<0>v" "Write_Address_0v"
"net017<0>v" "net017_0v"
"net017<1>v" "net017_1v"
"net11<0>v" "net11_0v"
"net11<1>v" "net11_1v"
"net11<2>v" "net11_2v"
"net11<3>v" "net11_3v"
"net11<4>v" "net11_4v"
"Read_Ackv" "Read_Ackv"
"net016<0>v" "net016_0v"
"net016<1>v" "net016_1v"
"net016<2>v" "net016_2v"
"net016<3>v" "net016_3v"
"net016<4>v" "net016_4v"
"net016<5>v" "net016_5v"
"net016<6>v" "net016_6v"
"net016<7>v" "net016_7v"
"net016<8>v" "net016_8v"
"net016<9>v" "net016_9v"
"net016<10>v" "net016_10v"
"net016<11>v" "net016_11v"
"net016<12>v" "net016_12v"
"net016<13>v" "net016_13v"
"net016<14>v" "net016_14v"
"net016<15>v" "net016_15v"
"net016<16>v" "net016_16v"
"net016<17>v" "net016_17v"
"net016<18>v" "net016_18v"
"net016<19>v" "net016_19v"
"WriteAck<7>v" "WriteAck_7v"
"WriteAck<6>v" "WriteAck_6v"
"WriteAck<5>v" "WriteAck_5v"
"WriteAck<4>v" "WriteAck_4v"
"WriteAck<3>v" "WriteAck_3v"
"WriteAck<2>v" "WriteAck_2v"
"WriteAck<1>v" "WriteAck_1v"
"WriteAck<0>v" "WriteAck_0v"
"ReadData<31>v" "ReadData_31v"
"ReadData<30>v" "ReadData_30v"
"ReadData<29>v" "ReadData_29v"
"ReadData<28>v" "ReadData_28v"
"ReadData<27>v" "ReadData_27v"
"ReadData<26>v" "ReadData_26v"
"ReadData<25>v" "ReadData_25v"
"ReadData<24>v" "ReadData_24v"
"ReadData<23>v" "ReadData_23v"
"ReadData<22>v" "ReadData_22v"
"ReadData<21>v" "ReadData_21v"
"ReadData<20>v" "ReadData_20v"
"ReadData<19>v" "ReadData_19v"
"ReadData<18>v" "ReadData_18v"
"ReadData<17>v" "ReadData_17v"
"ReadData<16>v" "ReadData_16v"
"ReadData<15>v" "ReadData_15v"
"ReadData<14>v" "ReadData_14v"
"ReadData<13>v" "ReadData_13v"
"ReadData<12>v" "ReadData_12v"
"ReadData<11>v" "ReadData_11v"
"ReadData<10>v" "ReadData_10v"
"ReadData<9>v" "ReadData_9v"
"ReadData<8>v" "ReadData_8v"
"ReadData<7>v" "ReadData_7v"
"ReadData<6>v" "ReadData_6v"
"ReadData<5>v" "ReadData_5v"
"ReadData<4>v" "ReadData_4v"
"ReadData<3>v" "ReadData_3v"
"ReadData<2>v" "ReadData_2v"
"ReadData<1>v" "ReadData_1v"
"ReadData<0>v" "ReadData_0v"
"Write<1>v" "Write_1v"
"Write<0>v" "Write_0v"
"WriteData<31>v" "WriteData_31v"
"WriteData<30>v" "WriteData_30v"
"WriteData<29>v" "WriteData_29v"
"WriteData<28>v" "WriteData_28v"
"WriteData<27>v" "WriteData_27v"
"WriteData<26>v" "WriteData_26v"
"WriteData<25>v" "WriteData_25v"
"WriteData<24>v" "WriteData_24v"
"WriteData<23>v" "WriteData_23v"
"WriteData<22>v" "WriteData_22v"
"WriteData<21>v" "WriteData_21v"
"WriteData<20>v" "WriteData_20v"
"WriteData<19>v" "WriteData_19v"
"WriteData<18>v" "WriteData_18v"
"WriteData<17>v" "WriteData_17v"
"WriteData<16>v" "WriteData_16v"
"WriteData<15>v" "WriteData_15v"
"WriteData<14>v" "WriteData_14v"
"WriteData<13>v" "WriteData_13v"
"WriteData<12>v" "WriteData_12v"
"WriteData<11>v" "WriteData_11v"
"WriteData<10>v" "WriteData_10v"
"WriteData<9>v" "WriteData_9v"
"WriteData<8>v" "WriteData_8v"
"WriteData<7>v" "WriteData_7v"
"WriteData<6>v" "WriteData_6v"
"WriteData<5>v" "WriteData_5v"
"WriteData<4>v" "WriteData_4v"
"WriteData<3>v" "WriteData_3v"
"WriteData<2>v" "WriteData_2v"
"WriteData<1>v" "WriteData_1v"
"WriteData<0>v" "WriteData_0v"
"Write_Ackv" "Write_Ackv"
"WAddr_Ack<4>v" "WAddr_Ack_4v"
"WAddr_Ack<3>v" "WAddr_Ack_3v"
"WAddr_Ack<2>v" "WAddr_Ack_2v"
"WAddr_Ack<1>v" "WAddr_Ack_1v"
"WAddr_Ack<0>v" "WAddr_Ack_0v"
"ReadAck<7>v" "ReadAck_7v"
"ReadAck<6>v" "ReadAck_6v"
"ReadAck<5>v" "ReadAck_5v"
"ReadAck<4>v" "ReadAck_4v"
"ReadAck<3>v" "ReadAck_3v"
"ReadAck<2>v" "ReadAck_2v"
"ReadAck<1>v" "ReadAck_1v"
"ReadAck<0>v" "ReadAck_0v"
"RAddr_Ack<4>v" "RAddr_Ack_4v"
"RAddr_Ack<3>v" "RAddr_Ack_3v"
"RAddr_Ack<2>v" "RAddr_Ack_2v"
"RAddr_Ack<1>v" "RAddr_Ack_1v"
"RAddr_Ack<0>v" "RAddr_Ack_0v"
"Read_Address<19>v" "Read_Address_19v"
"Read_Address<18>v" "Read_Address_18v"
"Read_Address<17>v" "Read_Address_17v"
"Read_Address<16>v" "Read_Address_16v"
"Read_Address<15>v" "Read_Address_15v"
"Read_Address<14>v" "Read_Address_14v"
"Read_Address<13>v" "Read_Address_13v"
"Read_Address<12>v" "Read_Address_12v"
"Read_Address<11>v" "Read_Address_11v"
"Read_Address<10>v" "Read_Address_10v"
"Read_Address<9>v" "Read_Address_9v"
"Read_Address<8>v" "Read_Address_8v"
"Read_Address<7>v" "Read_Address_7v"
"Read_Address<6>v" "Read_Address_6v"
"Read_Address<5>v" "Read_Address_5v"
"Read_Address<4>v" "Read_Address_4v"
"Read_Address<3>v" "Read_Address_3v"
"Read_Address<2>v" "Read_Address_2v"
"Read_Address<1>v" "Read_Address_1v"
"Read_Address<0>v" "Read_Address_0v"
"Read<1>v" "Read_1v"
"Read<0>v" "Read_0v"
