HEADER
"PSFversion" "1.00"
"net017v" "net017v"
"Cv" "Cv"
"net018v" "net018v"
"Yv" "Yv"
"Av" "Av"
"Dv" "Dv"
"net21v" "net21v"
"Bv" "Bv"
