HEADER
"PSFversion" "1.00"
"I17n" "or16_1x"
"I15n" "or4_1x"
"I14n" "TH44"
"I16n" "or_1x"
"A<3>v" ":1v"
"A<2>v" ":2v"
"A<1>v" ":3v"
"A<0>v" ":4v"
"A<7>v" ":5v"
"A<6>v" ":6v"
"A<5>v" ":7v"
"A<4>v" ":8v"
"A<11>v" ":9v"
"A<10>v" ":10v"
"A<9>v" ":11v"
"A<8>v" ":12v"
"A<15>v" ":13v"
"A<14>v" ":14v"
"A<13>v" ":15v"
"A<12>v" ":16v"
"A<19>v" ":17v"
"A<18>v" ":18v"
"A<17>v" ":19v"
"A<16>v" ":20v"
"InAck<1>v" ":21v"
"InAck<0>v" ":22v"
"InAck<3>v" ":23v"
"InAck<2>v" ":24v"
"OutAckv" ":25v"
"RW<1>v" ":26v"
"RW<0>v" ":27v"
"Resetv" ":28v"
"ValAddrv" ":29v"
