HEADER
"PSFversion" "1.00"
"net068v" "net068v"
"Out1<3>v" "Out1_3v"
"net070v" "net070v"
"Lack<3>v" "Lack_3v"
"R1_1of4<3>v" "R1_1of4_3v"
"W1<3>v" "W1_3v"
"W1<2>v" "W1_2v"
"W1<1>v" "W1_1v"
"W1<0>v" "W1_0v"
"W1_1of4<1>v" "W1_1of4_1v"
"W1_1of4<2>v" "W1_1of4_2v"
"W1_1of4<3>v" "W1_1of4_3v"
"W2_1of4<0>v" "W2_1of4_0v"
"net060<0>v" "net060_0v"
"net060<1>v" "net060_1v"
"net060<2>v" "net060_2v"
"net060<3>v" "net060_3v"
"W1_1of4<0>v" "W1_1of4_0v"
"Rack<0>v" "Rack_0v"
"Rack<2>v" "Rack_2v"
"B0<2>v" "B0_2v"
"W2_1of4<3>v" "W2_1of4_3v"
"B1<2>v" "B1_2v"
"B1<3>v" "B1_3v"
"B0<1>v" "B0_1v"
"W2_1of4<2>v" "W2_1of4_2v"
"net036v" "net036v"
"W2_1of4<1>v" "W2_1of4_1v"
"nOr<5>v" "nOr_5v"
"R2_1of4<3>v" "R2_1of4_3v"
"B0<3>v" "B0_3v"
"B0<0>v" "B0_0v"
"net058<0>v" "net058_0v"
"net058<1>v" "net058_1v"
"net058<2>v" "net058_2v"
"net058<3>v" "net058_3v"
"ValAddrv" "ValAddrv"
"B1<1>v" "B1_1v"
"nOr<7>v" "nOr_7v"
"B1<0>v" "B1_0v"
"nOr<6>v" "nOr_6v"
"AckThruTopv" "AckThruTopv"
"~R0<3>v" "\\~R0_3v"
"~R0<2>v" "\\~R0_2v"
"~R0<1>v" "\\~R0_1v"
"~R0<0>v" "\\~R0_0v"
"net046v" "net046v"
"net071v" "net071v"
"net065v" "net065v"
"Out0<3>v" "Out0_3v"
"Out0<2>v" "Out0_2v"
"Out0<1>v" "Out0_1v"
"Out0<0>v" "Out0_0v"
"Out1<2>v" "Out1_2v"
"Out1<1>v" "Out1_1v"
"Out1<0>v" "Out1_0v"
"Lack<0>v" "Lack_0v"
"Lack<1>v" "Lack_1v"
"Lack<2>v" "Lack_2v"
"net054v" "net054v"
"RW<1>v" "RW_1v"
"RW<0>v" "RW_0v"
"WAck<0>v" "WAck_0v"
"net030v" "net030v"
"RAck<1>v" "RAck_1v"
"RAck<0>v" "RAck_0v"
"Rack<1>v" "Rack_1v"
"Gov" "Gov"
"net064v" "net064v"
"Ackv" "Ackv"
"R1_1of4<2>v" "R1_1of4_2v"
"R1_1of4<1>v" "R1_1of4_1v"
"R1_1of4<0>v" "R1_1of4_0v"
"net047v" "net047v"
"net069v" "net069v"
"R2_1of4<2>v" "R2_1of4_2v"
"R2_1of4<1>v" "R2_1of4_1v"
"R2_1of4<0>v" "R2_1of4_0v"
"nOr<4>v" "nOr_4v"
"nOr<3>v" "nOr_3v"
"nOr<2>v" "nOr_2v"
"nOr<1>v" "nOr_1v"
"~R1<3>v" "\\~R1_3v"
"~R1<2>v" "\\~R1_2v"
"~R1<1>v" "\\~R1_1v"
"~R1<0>v" "\\~R1_0v"
"WAck<1>v" "WAck_1v"
"nOr<0>v" "nOr_0v"
"wack<3>v" "wack_3v"
"wack<2>v" "wack_2v"
"net067v" "net067v"
"wack<1>v" "wack_1v"
"wack<0>v" "wack_0v"
"net066v" "net066v"
"Rack<3>v" "Rack_3v"
"net059<0>v" "net059_0v"
"net059<1>v" "net059_1v"
"net059<2>v" "net059_2v"
"net059<3>v" "net059_3v"
"net057<0>v" "net057_0v"
"net057<1>v" "net057_1v"
"net057<2>v" "net057_2v"
"net057<3>v" "net057_3v"
"Resetv" "Resetv"
"W0<3>v" "W0_3v"
"W0<2>v" "W0_2v"
"W0<1>v" "W0_1v"
"W0<0>v" "W0_0v"
"AckThruBotv" "AckThruBotv"
