HEADER
"PSFversion" "1.00"
"X<31>v" "X_31v"
"X<30>v" "X_30v"
"X<29>v" "X_29v"
"X<28>v" "X_28v"
"X<27>v" "X_27v"
"X<26>v" "X_26v"
"X<25>v" "X_25v"
"X<24>v" "X_24v"
"X<23>v" "X_23v"
"X<22>v" "X_22v"
"X<21>v" "X_21v"
"X<20>v" "X_20v"
"X<19>v" "X_19v"
"X<18>v" "X_18v"
"X<17>v" "X_17v"
"X<16>v" "X_16v"
"X<15>v" "X_15v"
"X<14>v" "X_14v"
"X<13>v" "X_13v"
"X<12>v" "X_12v"
"X<11>v" "X_11v"
"X<10>v" "X_10v"
"X<9>v" "X_9v"
"X<8>v" "X_8v"
"X<7>v" "X_7v"
"X<6>v" "X_6v"
"X<5>v" "X_5v"
"X<4>v" "X_4v"
"X<3>v" "X_3v"
"X<2>v" "X_2v"
"X<1>v" "X_1v"
"X<0>v" "X_0v"
"net7v" "net7v"
"net11v" "net11v"
"net15v" "net15v"
"net14v" "net14v"
"net8v" "net8v"
"net12v" "net12v"
"Yv" "Yv"
"net13v" "net13v"
"net9v" "net9v"
"net10v" "net10v"
"net6v" "net6v"
