HEADER
"PSFversion" "1.00"
"net26v" "net26v"
"net36v" "net36v"
"a0v" "a0v"
"vAckv" "vAckv"
"net35v" "net35v"
"net38v" "net38v"
"y1v" "y1v"
"net37v" "net37v"
"y0v" "y0v"
"b0v" "b0v"
"net023v" "net023v"
"net015v" "net015v"
"a1v" "a1v"
"b1v" "b1v"
