HEADER
"PSFversion" "1.00"
"y1<1>v" "y1_1v"
"y1<0>v" "y1_0v"
"a1<1>v" "a1_1v"
"a1<0>v" "a1_0v"
"net16v" "net16v"
"y0<1>v" "y0_1v"
"net15v" "net15v"
"a0<0>v" "a0_0v"
"y0<0>v" "y0_0v"
"b1<1>v" "b1_1v"
"b1<0>v" "b1_0v"
"a0<1>v" "a0_1v"
"b0<1>v" "b0_1v"
"b0<0>v" "b0_0v"
