HEADER
"PSFversion" "1.00"
"b0<3>v" "b0_3v"
"b0<2>v" "b0_2v"
"b0<1>v" "b0_1v"
"b0<0>v" "b0_0v"
"a0<3>v" "a0_3v"
"a0<2>v" "a0_2v"
"a0<1>v" "a0_1v"
"a0<0>v" "a0_0v"
"y0<0>v" "y0_0v"
"y1<0>v" "y1_0v"
"y1<3>v" "y1_3v"
"y1<2>v" "y1_2v"
"y1<1>v" "y1_1v"
"net15v" "net15v"
"net14v" "net14v"
"net13v" "net13v"
"b1<3>v" "b1_3v"
"b1<2>v" "b1_2v"
"b1<1>v" "b1_1v"
"b1<0>v" "b1_0v"
"y0<3>v" "y0_3v"
"y0<2>v" "y0_2v"
"y0<1>v" "y0_1v"
"a1<3>v" "a1_3v"
"a1<2>v" "a1_2v"
"a1<1>v" "a1_1v"
"a1<0>v" "a1_0v"
"net16v" "net16v"
