HEADER
"PSFversion" "1.00"
"V0n V1n" "UCD_Analog_Parts_vdc_spectre"
"I5<23>v" "I5_23v"
"I5<22>v" "I5_22v"
"I5<21>v" "I5_21v"
"I5<20>v" "I5_20v"
"I5<19>v" "I5_19v"
"I5<18>v" "I5_18v"
"I5<17>v" "I5_17v"
"I5<16>v" "I5_16v"
"I5<15>v" "I5_15v"
"I5<14>v" "I5_14v"
"I5<13>v" "I5_13v"
"I5<12>v" "I5_12v"
"I5<11>v" "I5_11v"
"I5<10>v" "I5_10v"
"I5<9>v" "I5_9v"
"I5<8>v" "I5_8v"
"I5<7>v" "I5_7v"
"I5<6>v" "I5_6v"
"I5<5>v" "I5_5v"
"I5<4>v" "I5_4v"
"I5<3>v" "I5_3v"
"I5<2>v" "I5_2v"
"I5<1>v" "I5_1v"
"I5<0>v" "I5_0v"
"I22<23>v" "I22_23v"
"I22<22>v" "I22_22v"
"I22<21>v" "I22_21v"
"I22<20>v" "I22_20v"
"I22<19>v" "I22_19v"
"I22<18>v" "I22_18v"
"I22<17>v" "I22_17v"
"I22<16>v" "I22_16v"
"I22<15>v" "I22_15v"
"I22<14>v" "I22_14v"
"I22<13>v" "I22_13v"
"I22<12>v" "I22_12v"
"I22<11>v" "I22_11v"
"I22<10>v" "I22_10v"
"I22<9>v" "I22_9v"
"I22<8>v" "I22_8v"
"I22<7>v" "I22_7v"
"I22<6>v" "I22_6v"
"I22<5>v" "I22_5v"
"I22<4>v" "I22_4v"
"I22<3>v" "I22_3v"
"I22<2>v" "I22_2v"
"I22<1>v" "I22_1v"
"I22<0>v" "I22_0v"
"I23<23>v" "I23_23v"
"I23<22>v" "I23_22v"
"I23<21>v" "I23_21v"
"I23<20>v" "I23_20v"
"I23<19>v" "I23_19v"
"I23<18>v" "I23_18v"
"I23<17>v" "I23_17v"
"I23<16>v" "I23_16v"
"I23<15>v" "I23_15v"
"I23<14>v" "I23_14v"
"I23<13>v" "I23_13v"
"I23<12>v" "I23_12v"
"I23<11>v" "I23_11v"
"I23<10>v" "I23_10v"
"I23<9>v" "I23_9v"
"I23<8>v" "I23_8v"
"I23<7>v" "I23_7v"
"I23<6>v" "I23_6v"
"I23<5>v" "I23_5v"
"I23<4>v" "I23_4v"
"I23<3>v" "I23_3v"
"I23<2>v" "I23_2v"
"I23<1>v" "I23_1v"
"I23<0>v" "I23_0v"
"I19<23>v" "I19_23v"
"I19<22>v" "I19_22v"
"I19<21>v" "I19_21v"
"I19<20>v" "I19_20v"
"I19<19>v" "I19_19v"
"I19<18>v" "I19_18v"
"I19<17>v" "I19_17v"
"I19<16>v" "I19_16v"
"I19<15>v" "I19_15v"
"I19<14>v" "I19_14v"
"I19<13>v" "I19_13v"
"I19<12>v" "I19_12v"
"I19<11>v" "I19_11v"
"I19<10>v" "I19_10v"
"I19<9>v" "I19_9v"
"I19<8>v" "I19_8v"
"I19<7>v" "I19_7v"
"I19<6>v" "I19_6v"
"I19<5>v" "I19_5v"
"I19<4>v" "I19_4v"
"I19<3>v" "I19_3v"
"I19<2>v" "I19_2v"
"I19<1>v" "I19_1v"
"I19<0>v" "I19_0v"
"I13n I15n I14n I5<23>n I5<22>n I5<21>n I5<20>n I5<19>n I5<18>n I5<17>n I5<16>n I5<15>n I5<14>n I5<13>n I5<12>n I5<11>n I5<10>n I5<9>n I5<8>n I5<7>n I5<6>n I5<5>n I5<4>n I5<3>n I5<2>n I5<1>n I5<0>n I22<23>n I22<22>n I22<21>n I22<20>n I22<19>n I22<18>n I22<17>n I22<16>n I22<15>n I22<14>n I22<13>n I22<12>n I22<11>n I22<10>n I22<9>n I22<8>n I22<7>n I22<6>n I22<5>n I22<4>n I22<3>n I22<2>n I22<1>n I22<0>n I23<23>n I23<22>n I23<21>n I23<20>n I23<19>n I23<18>n I23<17>n I23<16>n I23<15>n I23<14>n I23<13>n I23<12>n I23<11>n I23<10>n I23<9>n I23<8>n I23<7>n I23<6>n I23<5>n I23<4>n I23<3>n I23<2>n I23<1>n I23<0>n I19<23>n I19<22>n I19<21>n I19<20>n I19<19>n I19<18>n I19<17>n I19<16>n I19<15>n I19<14>n I19<13>n I19<12>n I19<11>n I19<10>n I19<9>n I19<8>n I19<7>n I19<6>n I19<5>n I19<4>n I19<3>n I19<2>n I19<1>n I19<0>n" "inv_1xt"
"I4n" "Compare24_DR"
