HEADER
"PSFversion" "1.00"
"a1<23>v" "a1_23v"
"a1<22>v" "a1_22v"
"a1<21>v" "a1_21v"
"a1<20>v" "a1_20v"
"s2_n3_y0<3>v" "s2_n3_y0_3v"
"s2_n3_y0<2>v" "s2_n3_y0_2v"
"s2_n3_y0<1>v" "s2_n3_y0_1v"
"s2_n3_y0<0>v" "s2_n3_y0_0v"
"b1<15>v" "b1_15v"
"b1<14>v" "b1_14v"
"b1<13>v" "b1_13v"
"b1<12>v" "b1_12v"
"s2_n3_y1<3>v" "s2_n3_y1_3v"
"s2_n3_y1<2>v" "s2_n3_y1_2v"
"s2_n3_y1<1>v" "s2_n3_y1_1v"
"s2_n3_y1<0>v" "s2_n3_y1_0v"
"b1<7>v" "b1_7v"
"b1<6>v" "b1_6v"
"b1<5>v" "b1_5v"
"b1<4>v" "b1_4v"
"s2_n2_y0<3>v" "s2_n2_y0_3v"
"s2_n2_y0<2>v" "s2_n2_y0_2v"
"s2_n2_y0<1>v" "s2_n2_y0_1v"
"s2_n2_y0<0>v" "s2_n2_y0_0v"
"b1<19>v" "b1_19v"
"b1<18>v" "b1_18v"
"b1<17>v" "b1_17v"
"b1<16>v" "b1_16v"
"5y1<3>v" "_5y1_3v"
"5y1<2>v" "_5y1_2v"
"5y1<1>v" "_5y1_1v"
"5y1<0>v" "_5y1_0v"
"b1<11>v" "b1_11v"
"b1<10>v" "b1_10v"
"b1<9>v" "b1_9v"
"b1<8>v" "b1_8v"
"s2_n1_y0<3>v" "s2_n1_y0_3v"
"s2_n1_y0<2>v" "s2_n1_y0_2v"
"s2_n1_y0<1>v" "s2_n1_y0_1v"
"s2_n1_y0<0>v" "s2_n1_y0_0v"
"b1<23>v" "b1_23v"
"b1<22>v" "b1_22v"
"b1<21>v" "b1_21v"
"b1<20>v" "b1_20v"
"3y1<3>v" "_3y1_3v"
"3y1<2>v" "_3y1_2v"
"3y1<1>v" "_3y1_1v"
"3y1<0>v" "_3y1_0v"
"2y0<3>v" "_2y0_3v"
"2y0<2>v" "_2y0_2v"
"2y0<1>v" "_2y0_1v"
"2y0<0>v" "_2y0_0v"
"s3_y0<3>v" "s3_y0_3v"
"s3_y0<2>v" "s3_y0_2v"
"b0<7>v" "b0_7v"
"b0<6>v" "b0_6v"
"b0<5>v" "b0_5v"
"b0<4>v" "b0_4v"
"a1<11>v" "a1_11v"
"a1<10>v" "a1_10v"
"a1<9>v" "a1_9v"
"a1<8>v" "a1_8v"
"1y1<3>v" "_1y1_3v"
"1y1<2>v" "_1y1_2v"
"1y1<1>v" "_1y1_1v"
"1y1<0>v" "_1y1_0v"
"b0<19>v" "b0_19v"
"b0<18>v" "b0_18v"
"b0<17>v" "b0_17v"
"b0<16>v" "b0_16v"
"s3_y0<1>v" "s3_y0_1v"
"s3_y0<0>v" "s3_y0_0v"
"1y0<3>v" "_1y0_3v"
"1y0<2>v" "_1y0_2v"
"1y0<1>v" "_1y0_1v"
"1y0<0>v" "_1y0_0v"
"net50v" "net50v"
"4y1<3>v" "_4y1_3v"
"4y1<2>v" "_4y1_2v"
"4y1<1>v" "_4y1_1v"
"4y1<0>v" "_4y1_0v"
"3y0<3>v" "_3y0_3v"
"3y0<2>v" "_3y0_2v"
"3y0<1>v" "_3y0_1v"
"3y0<0>v" "_3y0_0v"
"a1<15>v" "a1_15v"
"a1<14>v" "a1_14v"
"a1<13>v" "a1_13v"
"a1<12>v" "a1_12v"
"b0<23>v" "b0_23v"
"b0<22>v" "b0_22v"
"b0<21>v" "b0_21v"
"b0<20>v" "b0_20v"
"a1<19>v" "a1_19v"
"a1<18>v" "a1_18v"
"a1<17>v" "a1_17v"
"a1<16>v" "a1_16v"
"a1<7>v" "a1_7v"
"a1<6>v" "a1_6v"
"a1<5>v" "a1_5v"
"a1<4>v" "a1_4v"
"a1<3>v" "a1_3v"
"a1<2>v" "a1_2v"
"a1<1>v" "a1_1v"
"a1<0>v" "a1_0v"
"s3_y1<3>v" "s3_y1_3v"
"s3_y1<2>v" "s3_y1_2v"
"net46<0>v" "net46_0v"
"net46<1>v" "net46_1v"
"net46<2>v" "net46_2v"
"net46<3>v" "net46_3v"
"b0<15>v" "b0_15v"
"b0<14>v" "b0_14v"
"b0<13>v" "b0_13v"
"b0<12>v" "b0_12v"
"b0<11>v" "b0_11v"
"b0<10>v" "b0_10v"
"b0<9>v" "b0_9v"
"b0<8>v" "b0_8v"
"b0<3>v" "b0_3v"
"b0<2>v" "b0_2v"
"b0<1>v" "b0_1v"
"b0<0>v" "b0_0v"
"b1<3>v" "b1_3v"
"b1<2>v" "b1_2v"
"b1<1>v" "b1_1v"
"b1<0>v" "b1_0v"
"a0<15>v" "a0_15v"
"a0<14>v" "a0_14v"
"a0<13>v" "a0_13v"
"a0<12>v" "a0_12v"
"6y0<3>v" "_6y0_3v"
"6y0<2>v" "_6y0_2v"
"6y0<1>v" "_6y0_1v"
"6y0<0>v" "_6y0_0v"
"a0<11>v" "a0_11v"
"a0<10>v" "a0_10v"
"a0<9>v" "a0_9v"
"a0<8>v" "a0_8v"
"sfy1<1>v" "sfy1_1v"
"sfy1<0>v" "sfy1_0v"
"5y0<3>v" "_5y0_3v"
"5y0<2>v" "_5y0_2v"
"5y0<1>v" "_5y0_1v"
"5y0<0>v" "_5y0_0v"
"a0<19>v" "a0_19v"
"a0<18>v" "a0_18v"
"a0<17>v" "a0_17v"
"a0<16>v" "a0_16v"
"GNDv" "GNDv"
"6y1<3>v" "_6y1_3v"
"6y1<2>v" "_6y1_2v"
"6y1<1>v" "_6y1_1v"
"6y1<0>v" "_6y1_0v"
"s2_n1_y1<3>v" "s2_n1_y1_3v"
"s2_n1_y1<2>v" "s2_n1_y1_2v"
"s2_n1_y1<1>v" "s2_n1_y1_1v"
"s2_n1_y1<0>v" "s2_n1_y1_0v"
"sfy0<1>v" "sfy0_1v"
"sfy0<0>v" "sfy0_0v"
"a0<23>v" "a0_23v"
"a0<22>v" "a0_22v"
"a0<21>v" "a0_21v"
"a0<20>v" "a0_20v"
"a0<7>v" "a0_7v"
"a0<6>v" "a0_6v"
"a0<5>v" "a0_5v"
"a0<4>v" "a0_4v"
"a0<3>v" "a0_3v"
"a0<2>v" "a0_2v"
"a0<1>v" "a0_1v"
"a0<0>v" "a0_0v"
"s3_y1<1>v" "s3_y1_1v"
"s3_y1<0>v" "s3_y1_0v"
"s2_n2_y1<3>v" "s2_n2_y1_3v"
"s2_n2_y1<2>v" "s2_n2_y1_2v"
"s2_n2_y1<1>v" "s2_n2_y1_1v"
"s2_n2_y1<0>v" "s2_n2_y1_0v"
"A0<23>v" "A0_23v"
"A0<22>v" "A0_22v"
"A0<21>v" "A0_21v"
"A0<20>v" "A0_20v"
"A0<19>v" "A0_19v"
"A0<18>v" "A0_18v"
"A0<17>v" "A0_17v"
"A0<16>v" "A0_16v"
"A0<15>v" "A0_15v"
"A0<14>v" "A0_14v"
"A0<13>v" "A0_13v"
"A0<12>v" "A0_12v"
"A0<11>v" "A0_11v"
"A0<10>v" "A0_10v"
"A0<9>v" "A0_9v"
"A0<8>v" "A0_8v"
"A0<7>v" "A0_7v"
"A0<6>v" "A0_6v"
"A0<5>v" "A0_5v"
"A0<4>v" "A0_4v"
"A0<3>v" "A0_3v"
"A0<2>v" "A0_2v"
"A0<1>v" "A0_1v"
"A0<0>v" "A0_0v"
"VDDLv" "VDDLv"
"~Eqv" "\\~Eqv"
"VDDHv" "VDDHv"
"B0<23>v" "B0_23v"
"B0<22>v" "B0_22v"
"B0<21>v" "B0_21v"
"B0<20>v" "B0_20v"
"B0<19>v" "B0_19v"
"B0<18>v" "B0_18v"
"B0<17>v" "B0_17v"
"B0<16>v" "B0_16v"
"B0<15>v" "B0_15v"
"B0<14>v" "B0_14v"
"B0<13>v" "B0_13v"
"B0<12>v" "B0_12v"
"B0<11>v" "B0_11v"
"B0<10>v" "B0_10v"
"B0<9>v" "B0_9v"
"B0<8>v" "B0_8v"
"B0<7>v" "B0_7v"
"B0<6>v" "B0_6v"
"B0<5>v" "B0_5v"
"B0<4>v" "B0_4v"
"B0<3>v" "B0_3v"
"B0<2>v" "B0_2v"
"B0<1>v" "B0_1v"
"B0<0>v" "B0_0v"
"B1<23>v" "B1_23v"
"B1<22>v" "B1_22v"
"B1<21>v" "B1_21v"
"B1<20>v" "B1_20v"
"B1<19>v" "B1_19v"
"B1<18>v" "B1_18v"
"B1<17>v" "B1_17v"
"B1<16>v" "B1_16v"
"B1<15>v" "B1_15v"
"B1<14>v" "B1_14v"
"B1<13>v" "B1_13v"
"B1<12>v" "B1_12v"
"B1<11>v" "B1_11v"
"B1<10>v" "B1_10v"
"B1<9>v" "B1_9v"
"B1<8>v" "B1_8v"
"B1<7>v" "B1_7v"
"B1<6>v" "B1_6v"
"B1<5>v" "B1_5v"
"B1<4>v" "B1_4v"
"B1<3>v" "B1_3v"
"B1<2>v" "B1_2v"
"B1<1>v" "B1_1v"
"B1<0>v" "B1_0v"
"net086v" "net086v"
"A1<23>v" "A1_23v"
"A1<22>v" "A1_22v"
"A1<21>v" "A1_21v"
"A1<20>v" "A1_20v"
"A1<19>v" "A1_19v"
"A1<18>v" "A1_18v"
"A1<17>v" "A1_17v"
"A1<16>v" "A1_16v"
"A1<15>v" "A1_15v"
"A1<14>v" "A1_14v"
"A1<13>v" "A1_13v"
"A1<12>v" "A1_12v"
"A1<11>v" "A1_11v"
"A1<10>v" "A1_10v"
"A1<9>v" "A1_9v"
"A1<8>v" "A1_8v"
"A1<7>v" "A1_7v"
"A1<6>v" "A1_6v"
"A1<5>v" "A1_5v"
"A1<4>v" "A1_4v"
"A1<3>v" "A1_3v"
"A1<2>v" "A1_2v"
"A1<1>v" "A1_1v"
"A1<0>v" "A1_0v"
"Eqv" "Eqv"
"vAckv" "vAckv"
"net47<0>v" "net47_0v"
"net47<1>v" "net47_1v"
"net47<2>v" "net47_2v"
"net47<3>v" "net47_3v"
"2y1<3>v" "_2y1_3v"
"2y1<2>v" "_2y1_2v"
"2y1<1>v" "_2y1_1v"
"2y1<0>v" "_2y1_0v"
"4y0<3>v" "_4y0_3v"
"4y0<2>v" "_4y0_2v"
"4y0<1>v" "_4y0_1v"
"4y0<0>v" "_4y0_0v"
