HEADER
"PSFversion" "1.00"
"I46n I41n I16n I11n I10n I14n I13n I43n I42n I45n I44n" "Compare4_DR"
"I48n" "Compare_DR"
"I49n" "or_1x"
"I47n" "Compare2_DR"
"a0<23>v" ":1v"
"a0<22>v" ":2v"
"a0<21>v" ":3v"
"a0<20>v" ":4v"
"a0<19>v" ":5v"
"a0<18>v" ":6v"
"a0<17>v" ":7v"
"a0<16>v" ":8v"
"a0<15>v" ":9v"
"a0<14>v" ":10v"
"a0<13>v" ":11v"
"a0<12>v" ":12v"
"a0<11>v" ":13v"
"a0<10>v" ":14v"
"a0<9>v" ":15v"
"a0<8>v" ":16v"
"a0<7>v" ":17v"
"a0<6>v" ":18v"
"a0<5>v" ":19v"
"a0<4>v" ":20v"
"a0<3>v" ":21v"
"a0<2>v" ":22v"
"a0<1>v" ":23v"
"a0<0>v" ":24v"
"a1<23>v" ":25v"
"a1<22>v" ":26v"
"a1<21>v" ":27v"
"a1<20>v" ":28v"
"a1<19>v" ":29v"
"a1<18>v" ":30v"
"a1<17>v" ":31v"
"a1<16>v" ":32v"
"a1<15>v" ":33v"
"a1<14>v" ":34v"
"a1<13>v" ":35v"
"a1<12>v" ":36v"
"a1<11>v" ":37v"
"a1<10>v" ":38v"
"a1<9>v" ":39v"
"a1<8>v" ":40v"
"a1<7>v" ":41v"
"a1<6>v" ":42v"
"a1<5>v" ":43v"
"a1<4>v" ":44v"
"a1<3>v" ":45v"
"a1<2>v" ":46v"
"a1<1>v" ":47v"
"a1<0>v" ":48v"
"b0<23>v" ":49v"
"b0<22>v" ":50v"
"b0<21>v" ":51v"
"b0<20>v" ":52v"
"b0<19>v" ":53v"
"b0<18>v" ":54v"
"b0<17>v" ":55v"
"b0<16>v" ":56v"
"b0<15>v" ":57v"
"b0<14>v" ":58v"
"b0<13>v" ":59v"
"b0<12>v" ":60v"
"b0<11>v" ":61v"
"b0<10>v" ":62v"
"b0<9>v" ":63v"
"b0<8>v" ":64v"
"b0<7>v" ":65v"
"b0<6>v" ":66v"
"b0<5>v" ":67v"
"b0<4>v" ":68v"
"b0<3>v" ":69v"
"b0<2>v" ":70v"
"b0<1>v" ":71v"
"b0<0>v" ":72v"
"b1<23>v" ":73v"
"b1<22>v" ":74v"
"b1<21>v" ":75v"
"b1<20>v" ":76v"
"b1<19>v" ":77v"
"b1<18>v" ":78v"
"b1<17>v" ":79v"
"b1<16>v" ":80v"
"b1<15>v" ":81v"
"b1<14>v" ":82v"
"b1<13>v" ":83v"
"b1<12>v" ":84v"
"b1<11>v" ":85v"
"b1<10>v" ":86v"
"b1<9>v" ":87v"
"b1<8>v" ":88v"
"b1<7>v" ":89v"
"b1<6>v" ":90v"
"b1<5>v" ":91v"
"b1<4>v" ":92v"
"b1<3>v" ":93v"
"b1<2>v" ":94v"
"b1<1>v" ":95v"
"b1<0>v" ":96v"
"Eqv" ":97v"
"~Eqv" ":98v"
"vAckv" ":99v"
