HEADER
"PSFversion" "1.00"
"Yv" "Yv"
"VDDv" "VDDv"
"Av" "Av"
"GNDv" "GNDv"
