HEADER
"PSFversion" "1.00"
"b0v" "b0v"
"b1v" "b1v"
"a0v" "a0v"
"a1v" "a1v"
"net12v" "net12v"
"net11v" "net11v"
"vv" "vv"
