HEADER
"PSFversion" "1.00"
"I3n I2n I1n I0n" "\\6T"
"A<3>v" "(FUNCTION or(mappedRoot(\".1[3]@index\") mappedRoot(\".A[3]\")))v"
"A<3>v" ".A[3]v"
"A<3>v" ".\\1[3] v"
"A<2>v" "(FUNCTION or(mappedRoot(\".1[2]@index\") mappedRoot(\".A[2]\")))v"
"A<2>v" ".A[2]v"
"A<2>v" ".\\1[2] v"
"A<1>v" "(FUNCTION or(mappedRoot(\".1[1]@index\") mappedRoot(\".A[1]\")))v"
"A<1>v" ".A[1]v"
"A<1>v" ".\\1[1] v"
"A<0>v" "(FUNCTION or(mappedRoot(\".1[0]@index\") mappedRoot(\".A[0]\")))v"
"A<0>v" ".A[0]v"
"A<0>v" ".\\1[0] v"
"B0v" "(FUNCTION or(mappedRoot(\".2@index\") mappedRoot(\".B0\")))v"
"B0v" ".B0v"
"B0v" ".\\2 v"
"B1v" "(FUNCTION or(mappedRoot(\".3@index\") mappedRoot(\".B1\")))v"
"B1v" ".B1v"
"B1v" ".\\3 v"
