HEADER
"PSFversion" "1.00"
"A<1>v" "A[1]v"
"A<3>v" "A[3]v"
"A<2>v" "A[2]v"
"A<0>v" "A[0]v"
"A<1>v" "A[1]v"
"A<3>v" "A[3]v"
"A<2>v" "A[2]v"
"A<0>v" "A[0]v"
