HEADER
"PSFversion" "1.00"
"M10n M9n M8n M7n M2n M0n" "NCSU_TechLib_FreePDK15_pfet_spectre"
"M6n M5n M4n M3n" "NCSU_TechLib_FreePDK15_nfet_spectre"
"W0v" "(FUNCTION or(mappedRoot(\".3@index\") mappedRoot(\".W0\")))v"
"W0v" ".W0v"
"W0v" ".\\3 v"
"W1v" "(FUNCTION or(mappedRoot(\".4@index\") mappedRoot(\".W1\")))v"
"W1v" ".W1v"
"W1v" ".\\4 v"
"Sv" "(FUNCTION or(mappedRoot(\".5@index\") mappedRoot(\".S\")))v"
"Sv" ".Sv"
"Sv" ".\\5 v"
"B0v" "(FUNCTION or(mappedRoot(\".1@index\") mappedRoot(\".B0\")))v"
"B0v" ".B0v"
"B0v" ".\\1 v"
"B1v" "(FUNCTION or(mappedRoot(\".2@index\") mappedRoot(\".B1\")))v"
"B1v" ".B1v"
"B1v" ".\\2 v"
