HEADER
"PSFversion" "1.00"
"I23n I12n" "nor_1x"
"I34n" "and4_1x"
"I29n I26n I25n I24n" "nand_1x"
"I28n I27n I0n I7n I1n I21n I6n I22n" "TH22"
"I42n I41n I39n I40n" "inv_1x"
"Lack<1>v" "(FUNCTION or(mappedRoot(\".1[1]@index\") mappedRoot(\".Lack[1]\")))v"
"Lack<1>v" ".Lack[1]v"
"Lack<1>v" ".\\1[1] v"
"Lack<0>v" "(FUNCTION or(mappedRoot(\".1[0]@index\") mappedRoot(\".Lack[0]\")))v"
"Lack<0>v" ".Lack[0]v"
"Lack<0>v" ".\\1[0] v"
"Rackv" "(FUNCTION or(mappedRoot(\".5@index\") mappedRoot(\".Rack\")))v"
"Rackv" ".Rackv"
"Rackv" ".\\5 v"
"Out<3>v" "(FUNCTION or(mappedRoot(\".2[3]@index\") mappedRoot(\".Out[3]\")))v"
"Out<3>v" ".Out[3]v"
"Out<3>v" ".\\2[3] v"
"Out<2>v" "(FUNCTION or(mappedRoot(\".2[2]@index\") mappedRoot(\".Out[2]\")))v"
"Out<2>v" ".Out[2]v"
"Out<2>v" ".\\2[2] v"
"Out<1>v" "(FUNCTION or(mappedRoot(\".2[1]@index\") mappedRoot(\".Out[1]\")))v"
"Out<1>v" ".Out[1]v"
"Out<1>v" ".\\2[1] v"
"Out<0>v" "(FUNCTION or(mappedRoot(\".2[0]@index\") mappedRoot(\".Out[0]\")))v"
"Out<0>v" ".Out[0]v"
"Out<0>v" ".\\2[0] v"
"L1<1>v" "(FUNCTION or(mappedRoot(\".4[1]@index\") mappedRoot(\".L1[1]\")))v"
"L1<1>v" ".L1[1]v"
"L1<1>v" ".\\4[1] v"
"L1<0>v" "(FUNCTION or(mappedRoot(\".4[0]@index\") mappedRoot(\".L1[0]\")))v"
"L1<0>v" ".L1[0]v"
"L1<0>v" ".\\4[0] v"
"L0<1>v" "(FUNCTION or(mappedRoot(\".3[1]@index\") mappedRoot(\".L0[1]\")))v"
"L0<1>v" ".L0[1]v"
"L0<1>v" ".\\3[1] v"
"L0<0>v" "(FUNCTION or(mappedRoot(\".3[0]@index\") mappedRoot(\".L0[0]\")))v"
"L0<0>v" ".L0[0]v"
"L0<0>v" ".\\3[0] v"
