HEADER
"PSFversion" "1.00"
"I26n I7n I24n I6n I3n I2n I1n I0n" "TH22"
"I30n I29n I31n I28n" "inv_1x"
"I12n" "or4_1x"
"I19n I22n I21n I20n" "nor_1x"
"I27n" "and4_1x"
"Out1<1>v" "(FUNCTION or(mappedRoot(\".3[1]@index\") mappedRoot(\".Out1[1]\")))v"
"Out1<1>v" ".Out1[1]v"
"Out1<1>v" ".\\3[1] v"
"Out1<0>v" "(FUNCTION or(mappedRoot(\".3[0]@index\") mappedRoot(\".Out1[0]\")))v"
"Out1<0>v" ".Out1[0]v"
"Out1<0>v" ".\\3[0] v"
"Out0<1>v" "(FUNCTION or(mappedRoot(\".2[1]@index\") mappedRoot(\".Out0[1]\")))v"
"Out0<1>v" ".Out0[1]v"
"Out0<1>v" ".\\2[1] v"
"Out0<0>v" "(FUNCTION or(mappedRoot(\".2[0]@index\") mappedRoot(\".Out0[0]\")))v"
"Out0<0>v" ".Out0[0]v"
"Out0<0>v" ".\\2[0] v"
"Lackv" "(FUNCTION or(mappedRoot(\".1@index\") mappedRoot(\".Lack\")))v"
"Lackv" ".Lackv"
"Lackv" ".\\1 v"
"Rack<1>v" "(FUNCTION or(mappedRoot(\".5[1]@index\") mappedRoot(\".Rack[1]\")))v"
"Rack<1>v" ".Rack[1]v"
"Rack<1>v" ".\\5[1] v"
"Rack<0>v" "(FUNCTION or(mappedRoot(\".5[0]@index\") mappedRoot(\".Rack[0]\")))v"
"Rack<0>v" ".Rack[0]v"
"Rack<0>v" ".\\5[0] v"
"In<3>v" "(FUNCTION or(mappedRoot(\".4[3]@index\") mappedRoot(\".In[3]\")))v"
"In<3>v" ".In[3]v"
"In<3>v" ".\\4[3] v"
"In<2>v" "(FUNCTION or(mappedRoot(\".4[2]@index\") mappedRoot(\".In[2]\")))v"
"In<2>v" ".In[2]v"
"In<2>v" ".\\4[2] v"
"In<1>v" "(FUNCTION or(mappedRoot(\".4[1]@index\") mappedRoot(\".In[1]\")))v"
"In<1>v" ".In[1]v"
"In<1>v" ".\\4[1] v"
"In<0>v" "(FUNCTION or(mappedRoot(\".4[0]@index\") mappedRoot(\".In[0]\")))v"
"In<0>v" ".In[0]v"
"In<0>v" ".\\4[0] v"
