HEADER
"PSFversion" "1.00"
"Run Generator" "drlRun rev. 1.0"
"Run Time Stamp" "May 19 05:15:07 2015"
"date" "May 19 05:15:07 2015"
"simulator" "spectre"
"netlistDir" "../netlist"
TYPE
"runObject" STRUCT(
"logName" ARRAY( * ) STRING *
"parent" STRING *
"sweepVariable" ARRAY( * ) STRING *
) PROP( "key" "runObject" )
VALUE
"Root" "runObject" (
("")
""
("nfin")
)
"nfin=7/psf" "runObject" (
(
"../nfin=7/psf/logFile"
"../nfin=7/psf/artistLogFile"
)
"Root"
()
) PROP(
"netlistDir" "../netlist"
"dataDir" "../nfin=7"
 "nfin" 7.000000e+00
)

"nfin=12/psf" "runObject" (
(
"../nfin=12/psf/logFile"
"../nfin=12/psf/artistLogFile"
)
"Root"
()
) PROP(
"netlistDir" "../netlist"
"dataDir" "../nfin=12"
 "nfin" 1.200000e+01
)

"nfin=17/psf" "runObject" (
(
"../nfin=17/psf/logFile"
"../nfin=17/psf/artistLogFile"
)
"Root"
()
) PROP(
"netlistDir" "../netlist"
"dataDir" "../nfin=17"
 "nfin" 1.700000e+01
)

"nfin=22/psf" "runObject" (
(
"../nfin=22/psf/logFile"
"../nfin=22/psf/artistLogFile"
)
"Root"
()
) PROP(
"netlistDir" "../netlist"
"dataDir" "../nfin=22"
 "nfin" 2.200000e+01
)

"nfin=27/psf" "runObject" (
(
"../nfin=27/psf/logFile"
"../nfin=27/psf/artistLogFile"
)
"Root"
()
) PROP(
"netlistDir" "../netlist"
"dataDir" "../nfin=27"
 "nfin" 2.700000e+01
)

"nfin=32/psf" "runObject" (
(
"../nfin=32/psf/logFile"
"../nfin=32/psf/artistLogFile"
)
"Root"
()
) PROP(
"netlistDir" "../netlist"
"dataDir" "../nfin=32"
 "nfin" 3.200000e+01
)

"nfin=37/psf" "runObject" (
(
"../nfin=37/psf/logFile"
"../nfin=37/psf/artistLogFile"
)
"Root"
()
) PROP(
"netlistDir" "../netlist"
"dataDir" "../nfin=37"
 "nfin" 3.700000e+01
)

"nfin=42/psf" "runObject" (
(
"../nfin=42/psf/logFile"
"../nfin=42/psf/artistLogFile"
)
"Root"
()
) PROP(
"netlistDir" "../netlist"
"dataDir" "../nfin=42"
 "nfin" 4.200000e+01
)

