HEADER
"PSFversion" "1.00"
"Run Generator" "drlRun rev. 1.0"
"Run Time Stamp" "May 19 23:40:14 2015"
"date" "May 19 23:40:14 2015"
"simulator" "spectre"
"netlistDir" "../netlist"
