HEADER
"PSFversion" "1.00"
"Run Generator" "drlRun rev. 1.0"
"Run Time Stamp" "May 19 23:40:14 2015"
"date" "May 19 23:40:14 2015"
"simulator" "spectre"
"netlistDir" "../netlist"
TYPE
"runObject" STRUCT(
"logName" ARRAY( * ) STRING *
"parent" STRING *
"sweepVariable" ARRAY( * ) STRING *
) PROP( "key" "runObject" )
VALUE
"Root" "runObject" (
("")
""
("nfin")
)
"nfin=12/psf" "runObject" (
(
"../nfin=12/psf/logFile"
"../nfin=12/psf/artistLogFile"
)
"Root"
()
) PROP(
"netlistDir" "../netlist"
"dataDir" "../nfin=12"
 "nfin" 1.200000e+01
)

