HEADER
"PSFversion" "1.00"
"I23n I22n I21n I20n" "nor4_1x"
"I24n" "nand4_1x"
"I19n I18n I17n I16n I15n I14n I13n I12n I0n I1n I2n I3n I7n I6n I5n I4n" "TH33"
"a<3>v" ":1v"
"a<2>v" ":2v"
"a<1>v" ":3v"
"a<0>v" ":4v"
"a_ackv" ":5v"
"ackv" ":6v"
"aselv" ":7v"
"b<3>v" ":8v"
"b<2>v" ":9v"
"b<1>v" ":10v"
"b<0>v" ":11v"
"b_ackv" ":12v"
"bselv" ":13v"
"c<3>v" ":14v"
"c<2>v" ":15v"
"c<1>v" ":16v"
"c<0>v" ":17v"
"c_ackv" ":18v"
"cselv" ":19v"
"d<3>v" ":20v"
"d<2>v" ":21v"
"d<1>v" ":22v"
"d<0>v" ":23v"
"d_ackv" ":24v"
"dselv" ":25v"
"in<3>v" ":26v"
"in<2>v" ":27v"
"in<1>v" ":28v"
"in<0>v" ":29v"
