HEADER
"PSFversion" "1.00"
"OutFIFOReqv" "OutFIFOReqv"
"ReadFromL1Ackv" "ReadFromL1Ackv"
"ReadWBFromL1Ackv" "ReadWBFromL1Ackv"
"L1RAckv" "L1RAckv"
"L1REv" "L1REv"
"L1RdRegAckv" "L1RdRegAckv"
"L1RdRegReqv" "L1RdRegReqv"
"L1WBRegAckv" "L1WBRegAckv"
"L1WBRegReqv" "L1WBRegReqv"
"OutFIFOAckv" "OutFIFOAckv"
"ReadFromL1Reqv" "ReadFromL1Reqv"
"ReadWBFromL1Reqv" "ReadWBFromL1Reqv"
