HEADER
"PSFversion" "1.00"
"a1v" "a1v"
"b1v" "b1v"
"vv" "vv"
"a0v" "a0v"
"y0v" "y0v"
"b0v" "b0v"
"net36v" "net36v"
"net35v" "net35v"
"net37v" "net37v"
"net38v" "net38v"
"net26v" "net26v"
"y1v" "y1v"
