HEADER
"PSFversion" "1.00"
"I44<15>v" "I44_15v"
"V1n V0n" "UCD_Analog_Parts_vdc_spectre"
"I44<14>v" "I44_14v"
"I44<13>v" "I44_13v"
"I44<12>v" "I44_12v"
"I44<11>v" "I44_11v"
"I44<10>v" "I44_10v"
"I44<9>v" "I44_9v"
"I44<8>v" "I44_8v"
"I44<7>v" "I44_7v"
"I44<6>v" "I44_6v"
"I44<5>v" "I44_5v"
"I44<4>v" "I44_4v"
"I44<3>v" "I44_3v"
"I44<2>v" "I44_2v"
"I44<1>v" "I44_1v"
"I44<0>v" "I44_0v"
"I27<7>v" "I27_7v"
"I27<6>v" "I27_6v"
"I27<5>v" "I27_5v"
"I27<4>v" "I27_4v"
"I27<3>v" "I27_3v"
"I27<2>v" "I27_2v"
"I27<1>v" "I27_1v"
"I27<0>v" "I27_0v"
"I16<1>v" "I16_1v"
"I16<0>v" "I16_0v"
"I19<32>v" "I19_32v"
"I19<31>v" "I19_31v"
"I19<30>v" "I19_30v"
"I19<29>v" "I19_29v"
"I19<28>v" "I19_28v"
"I19<27>v" "I19_27v"
"I19<26>v" "I19_26v"
"I19<25>v" "I19_25v"
"I19<24>v" "I19_24v"
"I19<23>v" "I19_23v"
"I19<22>v" "I19_22v"
"I19<21>v" "I19_21v"
"I19<20>v" "I19_20v"
"I19<19>v" "I19_19v"
"I19<18>v" "I19_18v"
"I19<17>v" "I19_17v"
"I19<16>v" "I19_16v"
"I19<15>v" "I19_15v"
"I19<14>v" "I19_14v"
"I19<13>v" "I19_13v"
"I19<12>v" "I19_12v"
"I19<11>v" "I19_11v"
"I19<10>v" "I19_10v"
"I19<9>v" "I19_9v"
"I19<8>v" "I19_8v"
"I19<7>v" "I19_7v"
"I19<6>v" "I19_6v"
"I19<5>v" "I19_5v"
"I19<4>v" "I19_4v"
"I19<3>v" "I19_3v"
"I19<2>v" "I19_2v"
"I19<1>v" "I19_1v"
"I19<0>v" "I19_0v"
"I26<15>v" "I26_15v"
"I26<14>v" "I26_14v"
"I26<13>v" "I26_13v"
"I26<12>v" "I26_12v"
"I26<11>v" "I26_11v"
"I26<10>v" "I26_10v"
"I26<9>v" "I26_9v"
"I26<8>v" "I26_8v"
"I26<7>v" "I26_7v"
"I26<6>v" "I26_6v"
"I26<5>v" "I26_5v"
"I26<4>v" "I26_4v"
"I26<3>v" "I26_3v"
"I26<2>v" "I26_2v"
"I26<1>v" "I26_1v"
"I26<0>v" "I26_0v"
"I44<15>n I44<14>n I44<13>n I44<12>n I44<11>n I44<10>n I44<9>n I44<8>n I44<7>n I44<6>n I44<5>n I44<4>n I44<3>n I44<2>n I44<1>n I44<0>n I43n I41n I27<7>n I27<6>n I27<5>n I27<4>n I27<3>n I27<2>n I27<1>n I27<0>n I7n I13n I16<1>n I16<0>n I19<32>n I19<31>n I19<30>n I19<29>n I19<28>n I19<27>n I19<26>n I19<25>n I19<24>n I19<23>n I19<22>n I19<21>n I19<20>n I19<19>n I19<18>n I19<17>n I19<16>n I19<15>n I19<14>n I19<13>n I19<12>n I19<11>n I19<10>n I19<9>n I19<8>n I19<7>n I19<6>n I19<5>n I19<4>n I19<3>n I19<2>n I19<1>n I19<0>n I26<15>n I26<14>n I26<13>n I26<12>n I26<11>n I26<10>n I26<9>n I26<8>n I26<7>n I26<6>n I26<5>n I26<4>n I26<3>n I26<2>n I26<1>n I26<0>n" "inv_1xt"
"I8<6>v" "I8_6v"
"I17n" "Dcache_TagMem"
"I8<5>v" "I8_5v"
"I8<4>v" "I8_4v"
"I8<3>v" "I8_3v"
"I8<2>v" "I8_2v"
"I8<1>v" "I8_1v"
"I8<0>v" "I8_0v"
"I20<6>v" "I20_6v"
"I20<5>v" "I20_5v"
"I20<4>v" "I20_4v"
"I20<3>v" "I20_3v"
"I20<2>v" "I20_2v"
"I20<1>v" "I20_1v"
"I20<0>v" "I20_0v"
"I22<31>v" "I22_31v"
"I22<30>v" "I22_30v"
"I22<29>v" "I22_29v"
"I22<28>v" "I22_28v"
"I22<27>v" "I22_27v"
"I22<26>v" "I22_26v"
"I22<25>v" "I22_25v"
"I22<24>v" "I22_24v"
"I22<23>v" "I22_23v"
"I22<22>v" "I22_22v"
"I22<21>v" "I22_21v"
"I22<20>v" "I22_20v"
"I22<19>v" "I22_19v"
"I22<18>v" "I22_18v"
"I22<17>v" "I22_17v"
"I22<16>v" "I22_16v"
"I22<15>v" "I22_15v"
"I22<14>v" "I22_14v"
"I22<13>v" "I22_13v"
"I22<12>v" "I22_12v"
"I22<11>v" "I22_11v"
"I22<10>v" "I22_10v"
"I22<9>v" "I22_9v"
"I22<8>v" "I22_8v"
"I22<7>v" "I22_7v"
"I22<6>v" "I22_6v"
"I22<5>v" "I22_5v"
"I22<4>v" "I22_4v"
"I22<3>v" "I22_3v"
"I22<2>v" "I22_2v"
"I22<1>v" "I22_1v"
"I22<0>v" "I22_0v"
"I23<31>v" "I23_31v"
"I23<30>v" "I23_30v"
"I23<29>v" "I23_29v"
"I23<28>v" "I23_28v"
"I23<27>v" "I23_27v"
"I23<26>v" "I23_26v"
"I23<25>v" "I23_25v"
"I23<24>v" "I23_24v"
"I23<23>v" "I23_23v"
"I23<22>v" "I23_22v"
"I23<21>v" "I23_21v"
"I23<20>v" "I23_20v"
"I23<19>v" "I23_19v"
"I23<18>v" "I23_18v"
"I23<17>v" "I23_17v"
"I23<16>v" "I23_16v"
"I23<15>v" "I23_15v"
"I23<14>v" "I23_14v"
"I23<13>v" "I23_13v"
"I23<12>v" "I23_12v"
"I23<11>v" "I23_11v"
"I23<10>v" "I23_10v"
"I23<9>v" "I23_9v"
"I23<8>v" "I23_8v"
"I23<7>v" "I23_7v"
"I23<6>v" "I23_6v"
"I23<5>v" "I23_5v"
"I23<4>v" "I23_4v"
"I23<3>v" "I23_3v"
"I23<2>v" "I23_2v"
"I23<1>v" "I23_1v"
"I23<0>v" "I23_0v"
"I38<11>v" "I38_11v"
"I38<10>v" "I38_10v"
"I38<9>v" "I38_9v"
"I38<8>v" "I38_8v"
"I38<7>v" "I38_7v"
"I38<6>v" "I38_6v"
"I38<5>v" "I38_5v"
"I38<4>v" "I38_4v"
"I38<3>v" "I38_3v"
"I38<2>v" "I38_2v"
"I38<1>v" "I38_1v"
"I38<0>v" "I38_0v"
"I35<11>v" "I35_11v"
"I35<10>v" "I35_10v"
"I35<9>v" "I35_9v"
"I35<8>v" "I35_8v"
"I35<7>v" "I35_7v"
"I35<6>v" "I35_6v"
"I35<5>v" "I35_5v"
"I35<4>v" "I35_4v"
"I35<3>v" "I35_3v"
"I35<2>v" "I35_2v"
"I35<1>v" "I35_1v"
"I35<0>v" "I35_0v"
"I8<6>n I8<5>n I8<4>n I8<3>n I8<2>n I8<1>n I8<0>n I20<6>n I20<5>n I20<4>n I20<3>n I20<2>n I20<1>n I20<0>n I22<31>n I22<30>n I22<29>n I22<28>n I22<27>n I22<26>n I22<25>n I22<24>n I22<23>n I22<22>n I22<21>n I22<20>n I22<19>n I22<18>n I22<17>n I22<16>n I22<15>n I22<14>n I22<13>n I22<12>n I22<11>n I22<10>n I22<9>n I22<8>n I22<7>n I22<6>n I22<5>n I22<4>n I22<3>n I22<2>n I22<1>n I22<0>n I23<31>n I23<30>n I23<29>n I23<28>n I23<27>n I23<26>n I23<25>n I23<24>n I23<23>n I23<22>n I23<21>n I23<20>n I23<19>n I23<18>n I23<17>n I23<16>n I23<15>n I23<14>n I23<13>n I23<12>n I23<11>n I23<10>n I23<9>n I23<8>n I23<7>n I23<6>n I23<5>n I23<4>n I23<3>n I23<2>n I23<1>n I23<0>n I38<11>n I38<10>n I38<9>n I38<8>n I38<7>n I38<6>n I38<5>n I38<4>n I38<3>n I38<2>n I38<1>n I38<0>n I35<11>n I35<10>n I35<9>n I35<8>n I35<7>n I35<6>n I35<5>n I35<4>n I35<3>n I35<2>n I35<1>n I35<0>n" "DFlop"
"I24<21>v" "I24_21v"
"I2n I10n I37n I36n" "HS_Cordic"
"I24<20>v" "I24_20v"
"I24<19>v" "I24_19v"
"I24<18>v" "I24_18v"
"I24<17>v" "I24_17v"
"I24<16>v" "I24_16v"
"I24<15>v" "I24_15v"
"I24<14>v" "I24_14v"
"I24<13>v" "I24_13v"
"I24<12>v" "I24_12v"
"I24<11>v" "I24_11v"
"I24<10>v" "I24_10v"
"I24<9>v" "I24_9v"
"I24<8>v" "I24_8v"
"I24<7>v" "I24_7v"
"I24<6>v" "I24_6v"
"I24<5>v" "I24_5v"
"I24<4>v" "I24_4v"
"I24<3>v" "I24_3v"
"I24<2>v" "I24_2v"
"I24<1>v" "I24_1v"
"I24<0>v" "I24_0v"
"I24<21>n I24<20>n I24<19>n I24<18>n I24<17>n I24<16>n I24<15>n I24<14>n I24<13>n I24<12>n I24<11>n I24<10>n I24<9>n I24<8>n I24<7>n I24<6>n I24<5>n I24<4>n I24<3>n I24<2>n I24<1>n I24<0>n" "DR_encoder"
"I9n" "Compare22_DR"
"I14n" "nor_1x"
"I21n" "_sub199"
"I5n I30n I29n" "and_1x"
"I11n" "_sub160"
"I31n" "Simple_tag_read_ctrl2"
"I32n" "ATSim_Tag_write_ctrl_rev3_spectre"
"I34n" "ATSim_L1_read_ctrl_rev3_spectre"
"I39n" "ATSim_L1_write_ctrl_rev3_spectre"
