HEADER
"PSFversion" "1.00"
"I4<1>v" "I4_1v"
"I4<0>v" "I4_0v"
"I0<31>v" "I0_31v"
"I4<1>n I4<0>n" "inv_1x"
"I0<30>v" "I0_30v"
"I0<29>v" "I0_29v"
"I0<28>v" "I0_28v"
"I0<27>v" "I0_27v"
"I0<26>v" "I0_26v"
"I0<25>v" "I0_25v"
"I0<24>v" "I0_24v"
"I0<23>v" "I0_23v"
"I0<22>v" "I0_22v"
"I0<21>v" "I0_21v"
"I0<20>v" "I0_20v"
"I0<19>v" "I0_19v"
"I0<18>v" "I0_18v"
"I0<17>v" "I0_17v"
"I0<16>v" "I0_16v"
"I0<15>v" "I0_15v"
"I0<14>v" "I0_14v"
"I0<13>v" "I0_13v"
"I0<12>v" "I0_12v"
"I0<11>v" "I0_11v"
"I0<10>v" "I0_10v"
"I0<9>v" "I0_9v"
"I0<8>v" "I0_8v"
"I0<7>v" "I0_7v"
"I0<6>v" "I0_6v"
"I0<5>v" "I0_5v"
"I0<4>v" "I0_4v"
"I0<3>v" "I0_3v"
"I0<2>v" "I0_2v"
"I0<1>v" "I0_1v"
"I0<0>v" "I0_0v"
"I6<31>v" "I6_31v"
"I6<30>v" "I6_30v"
"I6<29>v" "I6_29v"
"I6<28>v" "I6_28v"
"I6<27>v" "I6_27v"
"I6<26>v" "I6_26v"
"I6<25>v" "I6_25v"
"I6<24>v" "I6_24v"
"I6<23>v" "I6_23v"
"I6<22>v" "I6_22v"
"I6<21>v" "I6_21v"
"I6<20>v" "I6_20v"
"I6<19>v" "I6_19v"
"I6<18>v" "I6_18v"
"I6<17>v" "I6_17v"
"I6<16>v" "I6_16v"
"I6<15>v" "I6_15v"
"I6<14>v" "I6_14v"
"I6<13>v" "I6_13v"
"I6<12>v" "I6_12v"
"I6<11>v" "I6_11v"
"I6<10>v" "I6_10v"
"I6<9>v" "I6_9v"
"I6<8>v" "I6_8v"
"I6<7>v" "I6_7v"
"I6<6>v" "I6_6v"
"I6<5>v" "I6_5v"
"I6<4>v" "I6_4v"
"I6<3>v" "I6_3v"
"I6<2>v" "I6_2v"
"I6<1>v" "I6_1v"
"I6<0>v" "I6_0v"
"I3<31>v" "I3_31v"
"I3<30>v" "I3_30v"
"I3<29>v" "I3_29v"
"I3<28>v" "I3_28v"
"I3<27>v" "I3_27v"
"I3<26>v" "I3_26v"
"I3<25>v" "I3_25v"
"I3<24>v" "I3_24v"
"I3<23>v" "I3_23v"
"I3<22>v" "I3_22v"
"I3<21>v" "I3_21v"
"I3<20>v" "I3_20v"
"I3<19>v" "I3_19v"
"I3<18>v" "I3_18v"
"I3<17>v" "I3_17v"
"I3<16>v" "I3_16v"
"I3<15>v" "I3_15v"
"I3<14>v" "I3_14v"
"I3<13>v" "I3_13v"
"I3<12>v" "I3_12v"
"I3<11>v" "I3_11v"
"I3<10>v" "I3_10v"
"I3<9>v" "I3_9v"
"I3<8>v" "I3_8v"
"I3<7>v" "I3_7v"
"I3<6>v" "I3_6v"
"I3<5>v" "I3_5v"
"I3<4>v" "I3_4v"
"I3<3>v" "I3_3v"
"I3<2>v" "I3_2v"
"I3<1>v" "I3_1v"
"I3<0>v" "I3_0v"
"I2<31>v" "I2_31v"
"I2<30>v" "I2_30v"
"I2<29>v" "I2_29v"
"I2<28>v" "I2_28v"
"I2<27>v" "I2_27v"
"I2<26>v" "I2_26v"
"I2<25>v" "I2_25v"
"I2<24>v" "I2_24v"
"I2<23>v" "I2_23v"
"I2<22>v" "I2_22v"
"I2<21>v" "I2_21v"
"I2<20>v" "I2_20v"
"I2<19>v" "I2_19v"
"I2<18>v" "I2_18v"
"I2<17>v" "I2_17v"
"I2<16>v" "I2_16v"
"I2<15>v" "I2_15v"
"I2<14>v" "I2_14v"
"I2<13>v" "I2_13v"
"I2<12>v" "I2_12v"
"I2<11>v" "I2_11v"
"I2<10>v" "I2_10v"
"I2<9>v" "I2_9v"
"I2<8>v" "I2_8v"
"I2<7>v" "I2_7v"
"I2<6>v" "I2_6v"
"I2<5>v" "I2_5v"
"I2<4>v" "I2_4v"
"I2<3>v" "I2_3v"
"I2<2>v" "I2_2v"
"I2<1>v" "I2_1v"
"I2<0>v" "I2_0v"
"I1<31>v" "I1_31v"
"I1<30>v" "I1_30v"
"I1<29>v" "I1_29v"
"I1<28>v" "I1_28v"
"I1<27>v" "I1_27v"
"I1<26>v" "I1_26v"
"I1<25>v" "I1_25v"
"I1<24>v" "I1_24v"
"I1<23>v" "I1_23v"
"I1<22>v" "I1_22v"
"I1<21>v" "I1_21v"
"I1<20>v" "I1_20v"
"I1<19>v" "I1_19v"
"I1<18>v" "I1_18v"
"I1<17>v" "I1_17v"
"I1<16>v" "I1_16v"
"I1<15>v" "I1_15v"
"I1<14>v" "I1_14v"
"I1<13>v" "I1_13v"
"I1<12>v" "I1_12v"
"I1<11>v" "I1_11v"
"I1<10>v" "I1_10v"
"I1<9>v" "I1_9v"
"I1<8>v" "I1_8v"
"I1<7>v" "I1_7v"
"I1<6>v" "I1_6v"
"I1<5>v" "I1_5v"
"I1<4>v" "I1_4v"
"I1<3>v" "I1_3v"
"I1<2>v" "I1_2v"
"I1<1>v" "I1_1v"
"I1<0>v" "I1_0v"
"I0<31>n I0<30>n I0<29>n I0<28>n I0<27>n I0<26>n I0<25>n I0<24>n I0<23>n I0<22>n I0<21>n I0<20>n I0<19>n I0<18>n I0<17>n I0<16>n I0<15>n I0<14>n I0<13>n I0<12>n I0<11>n I0<10>n I0<9>n I0<8>n I0<7>n I0<6>n I0<5>n I0<4>n I0<3>n I0<2>n I0<1>n I0<0>n I6<31>n I6<30>n I6<29>n I6<28>n I6<27>n I6<26>n I6<25>n I6<24>n I6<23>n I6<22>n I6<21>n I6<20>n I6<19>n I6<18>n I6<17>n I6<16>n I6<15>n I6<14>n I6<13>n I6<12>n I6<11>n I6<10>n I6<9>n I6<8>n I6<7>n I6<6>n I6<5>n I6<4>n I6<3>n I6<2>n I6<1>n I6<0>n I3<31>n I3<30>n I3<29>n I3<28>n I3<27>n I3<26>n I3<25>n I3<24>n I3<23>n I3<22>n I3<21>n I3<20>n I3<19>n I3<18>n I3<17>n I3<16>n I3<15>n I3<14>n I3<13>n I3<12>n I3<11>n I3<10>n I3<9>n I3<8>n I3<7>n I3<6>n I3<5>n I3<4>n I3<3>n I3<2>n I3<1>n I3<0>n I2<31>n I2<30>n I2<29>n I2<28>n I2<27>n I2<26>n I2<25>n I2<24>n I2<23>n I2<22>n I2<21>n I2<20>n I2<19>n I2<18>n I2<17>n I2<16>n I2<15>n I2<14>n I2<13>n I2<12>n I2<11>n I2<10>n I2<9>n I2<8>n I2<7>n I2<6>n I2<5>n I2<4>n I2<3>n I2<2>n I2<1>n I2<0>n I1<31>n I1<30>n I1<29>n I1<28>n I1<27>n I1<26>n I1<25>n I1<24>n I1<23>n I1<22>n I1<21>n I1<20>n I1<19>n I1<18>n I1<17>n I1<16>n I1<15>n I1<14>n I1<13>n I1<12>n I1<11>n I1<10>n I1<9>n I1<8>n I1<7>n I1<6>n I1<5>n I1<4>n I1<3>n I1<2>n I1<1>n I1<0>n" "nand4_1x"
"Env" ":1v"
"S<1>v" ":2v"
"S<0>v" ":3v"
"X1<31>v" ":4v"
"X1<30>v" ":5v"
"X1<29>v" ":6v"
"X1<28>v" ":7v"
"X1<27>v" ":8v"
"X1<26>v" ":9v"
"X1<25>v" ":10v"
"X1<24>v" ":11v"
"X1<23>v" ":12v"
"X1<22>v" ":13v"
"X1<21>v" ":14v"
"X1<20>v" ":15v"
"X1<19>v" ":16v"
"X1<18>v" ":17v"
"X1<17>v" ":18v"
"X1<16>v" ":19v"
"X1<15>v" ":20v"
"X1<14>v" ":21v"
"X1<13>v" ":22v"
"X1<12>v" ":23v"
"X1<11>v" ":24v"
"X1<10>v" ":25v"
"X1<9>v" ":26v"
"X1<8>v" ":27v"
"X1<7>v" ":28v"
"X1<6>v" ":29v"
"X1<5>v" ":30v"
"X1<4>v" ":31v"
"X1<3>v" ":32v"
"X1<2>v" ":33v"
"X1<1>v" ":34v"
"X1<0>v" ":35v"
"X2<31>v" ":36v"
"X2<30>v" ":37v"
"X2<29>v" ":38v"
"X2<28>v" ":39v"
"X2<27>v" ":40v"
"X2<26>v" ":41v"
"X2<25>v" ":42v"
"X2<24>v" ":43v"
"X2<23>v" ":44v"
"X2<22>v" ":45v"
"X2<21>v" ":46v"
"X2<20>v" ":47v"
"X2<19>v" ":48v"
"X2<18>v" ":49v"
"X2<17>v" ":50v"
"X2<16>v" ":51v"
"X2<15>v" ":52v"
"X2<14>v" ":53v"
"X2<13>v" ":54v"
"X2<12>v" ":55v"
"X2<11>v" ":56v"
"X2<10>v" ":57v"
"X2<9>v" ":58v"
"X2<8>v" ":59v"
"X2<7>v" ":60v"
"X2<6>v" ":61v"
"X2<5>v" ":62v"
"X2<4>v" ":63v"
"X2<3>v" ":64v"
"X2<2>v" ":65v"
"X2<1>v" ":66v"
"X2<0>v" ":67v"
"X3<31>v" ":68v"
"X3<30>v" ":69v"
"X3<29>v" ":70v"
"X3<28>v" ":71v"
"X3<27>v" ":72v"
"X3<26>v" ":73v"
"X3<25>v" ":74v"
"X3<24>v" ":75v"
"X3<23>v" ":76v"
"X3<22>v" ":77v"
"X3<21>v" ":78v"
"X3<20>v" ":79v"
"X3<19>v" ":80v"
"X3<18>v" ":81v"
"X3<17>v" ":82v"
"X3<16>v" ":83v"
"X3<15>v" ":84v"
"X3<14>v" ":85v"
"X3<13>v" ":86v"
"X3<12>v" ":87v"
"X3<11>v" ":88v"
"X3<10>v" ":89v"
"X3<9>v" ":90v"
"X3<8>v" ":91v"
"X3<7>v" ":92v"
"X3<6>v" ":93v"
"X3<5>v" ":94v"
"X3<4>v" ":95v"
"X3<3>v" ":96v"
"X3<2>v" ":97v"
"X3<1>v" ":98v"
"X3<0>v" ":99v"
"X4<31>v" ":100v"
"X4<30>v" ":101v"
"X4<29>v" ":102v"
"X4<28>v" ":103v"
"X4<27>v" ":104v"
"X4<26>v" ":105v"
"X4<25>v" ":106v"
"X4<24>v" ":107v"
"X4<23>v" ":108v"
"X4<22>v" ":109v"
"X4<21>v" ":110v"
"X4<20>v" ":111v"
"X4<19>v" ":112v"
"X4<18>v" ":113v"
"X4<17>v" ":114v"
"X4<16>v" ":115v"
"X4<15>v" ":116v"
"X4<14>v" ":117v"
"X4<13>v" ":118v"
"X4<12>v" ":119v"
"X4<11>v" ":120v"
"X4<10>v" ":121v"
"X4<9>v" ":122v"
"X4<8>v" ":123v"
"X4<7>v" ":124v"
"X4<6>v" ":125v"
"X4<5>v" ":126v"
"X4<4>v" ":127v"
"X4<3>v" ":128v"
"X4<2>v" ":129v"
"X4<1>v" ":130v"
"X4<0>v" ":131v"
"Y<31>v" ":132v"
"Y<30>v" ":133v"
"Y<29>v" ":134v"
"Y<28>v" ":135v"
"Y<27>v" ":136v"
"Y<26>v" ":137v"
"Y<25>v" ":138v"
"Y<24>v" ":139v"
"Y<23>v" ":140v"
"Y<22>v" ":141v"
"Y<21>v" ":142v"
"Y<20>v" ":143v"
"Y<19>v" ":144v"
"Y<18>v" ":145v"
"Y<17>v" ":146v"
"Y<16>v" ":147v"
"Y<15>v" ":148v"
"Y<14>v" ":149v"
"Y<13>v" ":150v"
"Y<12>v" ":151v"
"Y<11>v" ":152v"
"Y<10>v" ":153v"
"Y<9>v" ":154v"
"Y<8>v" ":155v"
"Y<7>v" ":156v"
"Y<6>v" ":157v"
"Y<5>v" ":158v"
"Y<4>v" ":159v"
"Y<3>v" ":160v"
"Y<2>v" ":161v"
"Y<1>v" ":162v"
"Y<0>v" ":163v"
