HEADER
"PSFversion" "1.00"
"I1n I0n" "nor_1x"
"I2n" "_sub160"
"a0v" ":1v"
"a1v" ":2v"
"b0v" ":3v"
"b1v" ":4v"
"vv" ":5v"
