HEADER
"PSFversion" "1.00"
"OutAckv" "OutAckv"
"net8v" "net8v"
"A<17>v" "A_17v"
"A<15>v" "A_15v"
"A<14>v" "A_14v"
"A<13>v" "A_13v"
"A<12>v" "A_12v"
"A<11>v" "A_11v"
"A<10>v" "A_10v"
"A<9>v" "A_9v"
"A<8>v" "A_8v"
"A<7>v" "A_7v"
"A<6>v" "A_6v"
"A<5>v" "A_5v"
"A<4>v" "A_4v"
"A<3>v" "A_3v"
"A<2>v" "A_2v"
"A<1>v" "A_1v"
"A<0>v" "A_0v"
"ValAddrv" "ValAddrv"
"A<16>v" "A_16v"
"InAck<0>v" "InAck_0v"
"A<18>v" "A_18v"
"InAck<1>v" "InAck_1v"
"InAck<3>v" "InAck_3v"
"InAck<2>v" "InAck_2v"
"A<19>v" "A_19v"
"RW<1>v" "RW_1v"
"RW<0>v" "RW_0v"
"net7v" "net7v"
"Resetv" "Resetv"
