HEADER
"PSFversion" "1.00"
"I80<3>v" "I80_3v"
"I80<2>v" "I80_2v"
"I80<1>v" "I80_1v"
"I80<0>v" "I80_0v"
"I83<1>v" "I83_1v"
"I80<3>n I80<2>n I80<1>n I80<0>n" "PCHBd"
"I83<0>v" "I83_0v"
"I85<1>v" "I85_1v"
"I85<0>v" "I85_0v"
"I83<1>n I83<0>n I85<1>n I85<0>n" "PCHB_Write"
"I78<3>v" "I78_3v"
"I78<2>v" "I78_2v"
"I78<1>v" "I78_1v"
"I78<0>v" "I78_0v"
"I77<3>v" "I77_3v"
"I77<2>v" "I77_2v"
"I77<1>v" "I77_1v"
"I77<0>v" "I77_0v"
"M1<3>v" "M1_3v"
"I82n I78<3>n I78<2>n I78<1>n I78<0>n I77<3>n I77<2>n I77<1>n I77<0>n" "and_1x"
"M1<2>v" "M1_2v"
"M1<1>v" "M1_1v"
"M1<0>v" "M1_0v"
"M0<3>v" "M0_3v"
"M0<2>v" "M0_2v"
"M0<1>v" "M0_1v"
"M0<0>v" "M0_0v"
"I35<3>v" "I35_3v"
"M1<3>n M1<2>n M1<1>n M1<0>n M0<3>n M0<2>n M0<1>n M0<0>n" "NCSU_TechLib_FreePDK15_pfet_spectre"
"I35<2>v" "I35_2v"
"I35<1>v" "I35_1v"
"I35<0>v" "I35_0v"
"I34<3>v" "I34_3v"
"I34<2>v" "I34_2v"
"I34<1>v" "I34_1v"
"I34<0>v" "I34_0v"
"I35<3>n I35<2>n I35<1>n I35<0>n I34<3>n I34<2>n I34<1>n I34<0>n" "inv_1x"
"I56n" "basic_cds_thru_spectre"
"I67<1>v" "I67_1v"
"I65n I38n" "TH22"
"I67<0>v" "I67_0v"
"I67<1>n I67<0>n" "WCHB_Read"
"I87n I43n" "_sub157"
"I86n I84n" "WCHB_Write"
"Ackv" ":1v"
"B0<3>v" ":2v"
"B0<2>v" ":3v"
"B0<1>v" ":4v"
"B0<0>v" ":5v"
"B1<3>v" ":6v"
"B1<2>v" ":7v"
"B1<1>v" ":8v"
"B1<0>v" ":9v"
"Gov" ":10v"
"R1_1of4<3>v" ":11v"
"R1_1of4<2>v" ":12v"
"R1_1of4<1>v" ":13v"
"R1_1of4<0>v" ":14v"
"R2_1of4<3>v" ":15v"
"R2_1of4<2>v" ":16v"
"R2_1of4<1>v" ":17v"
"R2_1of4<0>v" ":18v"
"RW<1>v" ":19v"
"RW<0>v" ":20v"
"Resetv" ":21v"
"ValAddrv" ":22v"
"W0<3>v" ":23v"
"W0<2>v" ":24v"
"W0<1>v" ":25v"
"W0<0>v" ":26v"
"W1<3>v" ":27v"
"W1<2>v" ":28v"
"W1<1>v" ":29v"
"W1<0>v" ":30v"
"W1_1of4<3>v" ":31v"
"W1_1of4<2>v" ":32v"
"W1_1of4<1>v" ":33v"
"W1_1of4<0>v" ":34v"
"W2_1of4<3>v" ":35v"
"W2_1of4<2>v" ":36v"
"W2_1of4<1>v" ":37v"
"W2_1of4<0>v" ":38v"
"AckThruBotv" ":39v"
"AckThruTopv" ":40v"
"RdataAck<1>v" ":41v"
"RdataAck<0>v" ":42v"
"WdataAck<1>v" ":43v"
"WdataAck<0>v" ":44v"
"~R0<3>v" ":45v"
"~R0<2>v" ":46v"
"~R0<1>v" ":47v"
"~R0<0>v" ":48v"
"~R1<3>v" ":49v"
"~R1<2>v" ":50v"
"~R1<1>v" ":51v"
"~R1<0>v" ":52v"
