HEADER
"PSFversion" "1.00"
"ICHUNKn" "_sub194"
"IMUXn" "_sub195"
"V0n V1n" "UCD_Analog_Parts_vdc_spectre"
"IDATAn" "_sub197"
"I2<16>v" "I2_16v"
"I2<15>v" "I2_15v"
"I2<14>v" "I2_14v"
"I2<13>v" "I2_13v"
"I2<12>v" "I2_12v"
"I2<11>v" "I2_11v"
"I2<10>v" "I2_10v"
"I2<9>v" "I2_9v"
"I2<8>v" "I2_8v"
"I2<7>v" "I2_7v"
"I2<6>v" "I2_6v"
"I2<5>v" "I2_5v"
"I2<4>v" "I2_4v"
"I2<3>v" "I2_3v"
"I2<2>v" "I2_2v"
"I2<1>v" "I2_1v"
"I2<0>v" "I2_0v"
"I0<1>v" "I0_1v"
"I0<0>v" "I0_0v"
"I9<7>v" "I9_7v"
"I9<6>v" "I9_6v"
"I9<5>v" "I9_5v"
"I9<4>v" "I9_4v"
"I9<3>v" "I9_3v"
"I9<2>v" "I9_2v"
"I9<1>v" "I9_1v"
"I9<0>v" "I9_0v"
"I11<1>v" "I11_1v"
"I11<0>v" "I11_0v"
"I7<1>v" "I7_1v"
"I7<0>v" "I7_0v"
"I13<7>v" "I13_7v"
"I13<6>v" "I13_6v"
"I13<5>v" "I13_5v"
"I13<4>v" "I13_4v"
"I13<3>v" "I13_3v"
"I13<2>v" "I13_2v"
"I13<1>v" "I13_1v"
"I13<0>v" "I13_0v"
"I5n I2<16>n I2<15>n I2<14>n I2<13>n I2<12>n I2<11>n I2<10>n I2<9>n I2<8>n I2<7>n I2<6>n I2<5>n I2<4>n I2<3>n I2<2>n I2<1>n I2<0>n I0<1>n I0<0>n I9<7>n I9<6>n I9<5>n I9<4>n I9<3>n I9<2>n I9<1>n I9<0>n I11<1>n I11<0>n I7<1>n I7<0>n I13<7>n I13<6>n I13<5>n I13<4>n I13<3>n I13<2>n I13<1>n I13<0>n" "inv_1xt"
