HEADER
"PSFversion" "1.00"
"I34n I5n I4n" "inv_1x"
"I12n" "THaC"
"M5n M4n M3n M2n" "NCSU_TechLib_FreePDK15_nfet_spectre"
"M1n M0n" "NCSU_TechLib_FreePDK15_pfet_spectre"
"I6n" "nand_1x"
"I9n" "or_1x"
"I2n I3n" "inv_weak_1x"
"I11n" "TH22"
"I31n" "nor_1x"
"Aiv" ":1v"
"B0v" ":2v"
"B1v" ":3v"
"R0iv" ":4v"
"R1iv" ":5v"
"W0v" ":6v"
"W1v" ":7v"
