HEADER
"PSFversion" "1.00"
"M8n M5n M6n M9n M7n" "NCSU_TechLib_FreePDK15_nfet_spectre"
"I2n I9n" "inv_1x"
"M4n M3n M0n M2n M1n" "NCSU_TechLib_FreePDK15_pfet_spectre"
"Av" ":1v"
"B+v" ":2v"
"C-v" ":3v"
"Yv" ":4v"
