HEADER
"PSFversion" "1.00"
"I23n I12n" "nor_1x"
"I34n" "and4_1x"
"I29n I26n I25n I24n" "nand_1x"
"I28n I27n I0n I7n I1n I21n I6n I22n" "TH22"
"I42n I41n I39n I40n" "inv_1x"
"L0<1>v" ":1v"
"L0<0>v" ":2v"
"L1<1>v" ":3v"
"L1<0>v" ":4v"
"Lack<1>v" ":5v"
"Lack<0>v" ":6v"
"Out<3>v" ":7v"
"Out<2>v" ":8v"
"Out<1>v" ":9v"
"Out<0>v" ":10v"
"Rackv" ":11v"
