HEADER
"PSFversion" "1.00"
"I0n" "nor4_1x"
"I1n" "inv_1x"
"Av" ":1v"
"Bv" ":2v"
"Cv" ":3v"
"Dv" ":4v"
"Yv" ":5v"
