HEADER
"PSFversion" "1.00"
"__NEXT_FILE__" "inv_tb"
