HEADER
"PSFversion" "1.00"
"Lack<3>v" "Lack[3]v"
"Lack<2>v" "Lack[2]v"
"Lack<1>v" "Lack[1]v"
"Lack<0>v" "Lack[0]v"
"R0q<3>v" "R0q[3]v"
"R0q<2>v" "R0q[2]v"
"R0q<1>v" "R0q[1]v"
"R0q<0>v" "R0q[0]v"
"R1q<3>v" "R1q[3]v"
"R1q<2>v" "R1q[2]v"
"R1q<1>v" "R1q[1]v"
"R1q<0>v" "R1q[0]v"
"RpAck<3>v" "RpAck[3]v"
"RpAck<2>v" "RpAck[2]v"
"RpAck<1>v" "RpAck[1]v"
"RpAck<0>v" "RpAck[0]v"
"WdataAck<0>v" "WdataAck[0]v"
"B0<3>v" "B0[3]v"
"B0<2>v" "B0[2]v"
"B0<1>v" "B0[1]v"
"B0<0>v" "B0[0]v"
"WdataAck<1>v" "WdataAck[1]v"
"wack<0>v" "wack[0]v"
"B1<3>v" "B1[3]v"
"B1<2>v" "B1[2]v"
"B1<1>v" "B1[1]v"
"B1<0>v" "B1[0]v"
"nB0<1>v" "nB0[1]v"
"nB0<0>v" "nB0[0]v"
"nB1<1>v" "nB1[1]v"
"nB1<0>v" "nB1[0]v"
"nB1<3>v" "nB1[3]v"
"nB1<2>v" "nB1[2]v"
"W2_1of4<3>v" "W2_1of4[3]v"
"W2_1of4<2>v" "W2_1of4[2]v"
"W2_1of4<1>v" "W2_1of4[1]v"
"W2_1of4<0>v" "W2_1of4[0]v"
"nB0<3>v" "nB0[3]v"
"nB0<2>v" "nB0[2]v"
"wack<3>v" "wack[3]v"
"Read_1of4<3>v" "Read_1of4[3]v"
"Read_1of4<2>v" "Read_1of4[2]v"
"Read_1of4<1>v" "Read_1of4[1]v"
"Read_1of4<0>v" "Read_1of4[0]v"
"wack<1>v" "wack[1]v"
"wack<2>v" "wack[2]v"
"W1<1>v" "W1[1]v"
"W1<0>v" "W1[0]v"
"~R1<3>v" "\\~R1 [3]v"
"~R1<2>v" "\\~R1 [2]v"
"~R1<1>v" "\\~R1 [1]v"
"~R1<0>v" "\\~R1 [0]v"
"Read_1of4<7>v" "Read_1of4[7]v"
"Read_1of4<6>v" "Read_1of4[6]v"
"Read_1of4<5>v" "Read_1of4[5]v"
"Read_1of4<4>v" "Read_1of4[4]v"
"W0<1>v" "W0[1]v"
"W0<0>v" "W0[0]v"
"RW<1>v" "RW[1]v"
"R1<3>v" "R1[3]v"
"R1<2>v" "R1[2]v"
"R1<1>v" "R1[1]v"
"R1<0>v" "R1[0]v"
"W0<3>v" "W0[3]v"
"W0<2>v" "W0[2]v"
"W1<3>v" "W1[3]v"
"W1<2>v" "W1[2]v"
"R0<3>v" "R0[3]v"
"R0<2>v" "R0[2]v"
"R0<1>v" "R0[1]v"
"R0<0>v" "R0[0]v"
"RW<0>v" "RW[0]v"
"W1_1of4<3>v" "W1_1of4[3]v"
"W1_1of4<2>v" "W1_1of4[2]v"
"W1_1of4<1>v" "W1_1of4[1]v"
"W1_1of4<0>v" "W1_1of4[0]v"
"RdataAck<1>v" "RdataAck[1]v"
"RdataAck<0>v" "RdataAck[0]v"
"~R0<3>v" "\\~R0 [3]v"
"~R0<2>v" "\\~R0 [2]v"
"~R0<1>v" "\\~R0 [1]v"
"~R0<0>v" "\\~R0 [0]v"
"Lack<3>v" "Lack[3]v"
"Lack<2>v" "Lack[2]v"
"Lack<1>v" "Lack[1]v"
"Lack<0>v" "Lack[0]v"
"R0q<3>v" "R0q[3]v"
"R0q<2>v" "R0q[2]v"
"R0q<1>v" "R0q[1]v"
"R0q<0>v" "R0q[0]v"
"R1q<3>v" "R1q[3]v"
"R1q<2>v" "R1q[2]v"
"R1q<1>v" "R1q[1]v"
"R1q<0>v" "R1q[0]v"
"RpAck<3>v" "RpAck[3]v"
"RpAck<2>v" "RpAck[2]v"
"RpAck<1>v" "RpAck[1]v"
"RpAck<0>v" "RpAck[0]v"
"WdataAck<0>v" "WdataAck[0]v"
"B0<3>v" "B0[3]v"
"B0<2>v" "B0[2]v"
"B0<1>v" "B0[1]v"
"B0<0>v" "B0[0]v"
"WdataAck<1>v" "WdataAck[1]v"
"wack<0>v" "wack[0]v"
"B1<3>v" "B1[3]v"
"B1<2>v" "B1[2]v"
"B1<1>v" "B1[1]v"
"B1<0>v" "B1[0]v"
"nB0<1>v" "nB0[1]v"
"nB0<0>v" "nB0[0]v"
"nB1<1>v" "nB1[1]v"
"nB1<0>v" "nB1[0]v"
"nB1<3>v" "nB1[3]v"
"nB1<2>v" "nB1[2]v"
"W2_1of4<3>v" "W2_1of4[3]v"
"W2_1of4<2>v" "W2_1of4[2]v"
"W2_1of4<1>v" "W2_1of4[1]v"
"W2_1of4<0>v" "W2_1of4[0]v"
"nB0<3>v" "nB0[3]v"
"nB0<2>v" "nB0[2]v"
"wack<3>v" "wack[3]v"
"Read_1of4<3>v" "Read_1of4[3]v"
"Read_1of4<2>v" "Read_1of4[2]v"
"Read_1of4<1>v" "Read_1of4[1]v"
"Read_1of4<0>v" "Read_1of4[0]v"
"wack<1>v" "wack[1]v"
"wack<2>v" "wack[2]v"
"W1<1>v" "W1[1]v"
"W1<0>v" "W1[0]v"
"~R1<3>v" "\\~R1 [3]v"
"~R1<2>v" "\\~R1 [2]v"
"~R1<1>v" "\\~R1 [1]v"
"~R1<0>v" "\\~R1 [0]v"
"Read_1of4<7>v" "Read_1of4[7]v"
"Read_1of4<6>v" "Read_1of4[6]v"
"Read_1of4<5>v" "Read_1of4[5]v"
"Read_1of4<4>v" "Read_1of4[4]v"
"W0<1>v" "W0[1]v"
"W0<0>v" "W0[0]v"
"RW<1>v" "RW[1]v"
"R1<3>v" "R1[3]v"
"R1<2>v" "R1[2]v"
"R1<1>v" "R1[1]v"
"R1<0>v" "R1[0]v"
"W0<3>v" "W0[3]v"
"W0<2>v" "W0[2]v"
"W1<3>v" "W1[3]v"
"W1<2>v" "W1[2]v"
"R0<3>v" "R0[3]v"
"R0<2>v" "R0[2]v"
"R0<1>v" "R0[1]v"
"R0<0>v" "R0[0]v"
"RW<0>v" "RW[0]v"
"W1_1of4<3>v" "W1_1of4[3]v"
"W1_1of4<2>v" "W1_1of4[2]v"
"W1_1of4<1>v" "W1_1of4[1]v"
"W1_1of4<0>v" "W1_1of4[0]v"
"RdataAck<1>v" "RdataAck[1]v"
"RdataAck<0>v" "RdataAck[0]v"
"~R0<3>v" "\\~R0 [3]v"
"~R0<2>v" "\\~R0 [2]v"
"~R0<1>v" "\\~R0 [1]v"
"~R0<0>v" "\\~R0 [0]v"
