HEADER
"PSFversion" "1.00"
"I34n I5n I4n" "inv_1x"
"I12n" "THaC"
"M5n M4n M3n M2n" "NCSU_TechLib_FreePDK15_nfet_spectre"
"M1n M0n" "NCSU_TechLib_FreePDK15_pfet_spectre"
"I6n" "nand_1x"
"I9n" "or_1x"
"I2n I3n" "inv_weak_1x"
"I11n" "TH22"
"I31n" "nor_1x"
"Aiv" "(FUNCTION or(mappedRoot(\".1@index\") mappedRoot(\".Ai\")))v"
"Aiv" ".Aiv"
"Aiv" ".\\1 v"
"B0v" "(FUNCTION or(mappedRoot(\".2@index\") mappedRoot(\".B0\")))v"
"B0v" ".B0v"
"B0v" ".\\2 v"
"B1v" "(FUNCTION or(mappedRoot(\".3@index\") mappedRoot(\".B1\")))v"
"B1v" ".B1v"
"B1v" ".\\3 v"
"R0iv" "(FUNCTION or(mappedRoot(\".4@index\") mappedRoot(\".R0i\")))v"
"R0iv" ".R0iv"
"R0iv" ".\\4 v"
"R1iv" "(FUNCTION or(mappedRoot(\".5@index\") mappedRoot(\".R1i\")))v"
"R1iv" ".R1iv"
"R1iv" ".\\5 v"
"W1v" "(FUNCTION or(mappedRoot(\".7@index\") mappedRoot(\".W1\")))v"
"W1v" ".W1v"
"W1v" ".\\7 v"
"W0v" "(FUNCTION or(mappedRoot(\".6@index\") mappedRoot(\".W0\")))v"
"W0v" ".W0v"
"W0v" ".\\6 v"
