HEADER
"PSFversion" "1.00"
"In<2>v" "In[2]v"
"In<1>v" "In[1]v"
"In<0>v" "In[0]v"
"~Out0<1>v" "\\~Out0 [1]v"
"~Out1<0>v" "\\~Out1 [0]v"
"Out0<0>v" "Out0[0]v"
"~Out1<1>v" "\\~Out1 [1]v"
"~Out0<0>v" "\\~Out0 [0]v"
"Out0<1>v" "Out0[1]v"
"Rack<1>v" "Rack[1]v"
"Rack<0>v" "Rack[0]v"
"b1<0>v" "b1[0]v"
"Out1<1>v" "Out1[1]v"
"Out1<0>v" "Out1[0]v"
"b0<0>v" "b0[0]v"
"b0<1>v" "b0[1]v"
"In<3>v" "In[3]v"
"b1<1>v" "b1[1]v"
"n<3>v" "n[3]v"
"n<2>v" "n[2]v"
"n<1>v" "n[1]v"
"n<0>v" "n[0]v"
"In<2>v" "In[2]v"
"In<1>v" "In[1]v"
"In<0>v" "In[0]v"
"~Out0<1>v" "\\~Out0 [1]v"
"~Out1<0>v" "\\~Out1 [0]v"
"Out0<0>v" "Out0[0]v"
"~Out1<1>v" "\\~Out1 [1]v"
"~Out0<0>v" "\\~Out0 [0]v"
"Out0<1>v" "Out0[1]v"
"Rack<1>v" "Rack[1]v"
"Rack<0>v" "Rack[0]v"
"b1<0>v" "b1[0]v"
"Out1<1>v" "Out1[1]v"
"Out1<0>v" "Out1[0]v"
"b0<0>v" "b0[0]v"
"b0<1>v" "b0[1]v"
"In<3>v" "In[3]v"
"b1<1>v" "b1[1]v"
"n<3>v" "n[3]v"
"n<2>v" "n[2]v"
"n<1>v" "n[1]v"
"n<0>v" "n[0]v"
