HEADER
"PSFversion" "1.00"
"Lack<0>v" "Lack[0]v"
"m<0>v" "m[0]v"
"m<1>v" "m[1]v"
"Out<2>v" "Out[2]v"
"~Out<0>v" "\\~Out [0]v"
"L0<1>v" "L0[1]v"
"L0<0>v" "L0[0]v"
"Out<1>v" "Out[1]v"
"~Out<3>v" "\\~Out [3]v"
"n1<0>v" "n1[0]v"
"n0<1>v" "n0[1]v"
"n0<0>v" "n0[0]v"
"Out<3>v" "Out[3]v"
"m<2>v" "m[2]v"
"L1<0>v" "L1[0]v"
"n1<1>v" "n1[1]v"
"L1<1>v" "L1[1]v"
"~Out<2>v" "\\~Out [2]v"
"m<3>v" "m[3]v"
"~Out<1>v" "\\~Out [1]v"
"Out<0>v" "Out[0]v"
"Lack<1>v" "Lack[1]v"
"Lack<0>v" "Lack[0]v"
"m<0>v" "m[0]v"
"m<1>v" "m[1]v"
"Out<2>v" "Out[2]v"
"~Out<0>v" "\\~Out [0]v"
"L0<1>v" "L0[1]v"
"L0<0>v" "L0[0]v"
"Out<1>v" "Out[1]v"
"~Out<3>v" "\\~Out [3]v"
"n1<0>v" "n1[0]v"
"n0<1>v" "n0[1]v"
"n0<0>v" "n0[0]v"
"Out<3>v" "Out[3]v"
"m<2>v" "m[2]v"
"L1<0>v" "L1[0]v"
"n1<1>v" "n1[1]v"
"L1<1>v" "L1[1]v"
"~Out<2>v" "\\~Out [2]v"
"m<3>v" "m[3]v"
"~Out<1>v" "\\~Out [1]v"
"Out<0>v" "Out[0]v"
"Lack<1>v" "Lack[1]v"
