HEADER
"PSFversion" "1.00"
"I7n I6n I5n I4n I3n I2n I1n I0n" "and2"
"I11n I10n I9n I8n" "inv_1x"
"I59n I58n I57n I56n I55n I54n I53n I52n I51n I50n I49n I48n I47n I46n I45n I44n" "and3_1x"
"I75n I74n I73n I72n I71n I70n I69n I68n I67n I66n I65n I64n I63n I62n I61n I60n" "or_1x"
"A<15>v" ":1v"
"A<14>v" ":2v"
"A<13>v" ":3v"
"A<12>v" ":4v"
"A<11>v" ":5v"
"A<10>v" ":6v"
"A<9>v" ":7v"
"A<8>v" ":8v"
"A<7>v" ":9v"
"A<6>v" ":10v"
"A<5>v" ":11v"
"A<4>v" ":12v"
"A<3>v" ":13v"
"A<2>v" ":14v"
"A<1>v" ":15v"
"A<0>v" ":16v"
"Env" ":17v"
"I<3>v" ":18v"
"I<2>v" ":19v"
"I<1>v" ":20v"
"I<0>v" ":21v"
"Resetv" ":22v"
