HEADER
"PSFversion" "1.00"
"Bv" "Bv"
"net24v" "net24v"
"net23v" "net23v"
"net25v" "net25v"
"Av" "Av"
"Cv" "Cv"
"Yv" "Yv"
"Dv" "Dv"
