HEADER
"PSFversion" "1.00"
"net12v" "net12v"
"~R1v" "\\~R1v"
"SM1<1>v" "SM1_1v"
"Gov" "Gov"
"SM1<0>v" "SM1_0v"
"SM0<1>v" "SM0_1v"
"~R0v" "\\~R0v"
"SM0<0>v" "SM0_0v"
"net18v" "net18v"
