HEADER
"PSFversion" "1.00"
"a<3>v" "a_3v"
"out<3>v" "out_3v"
"out<2>v" "out_2v"
"out<1>v" "out_1v"
"out<0>v" "out_0v"
"b_ackv" "b_ackv"
"net40v" "net40v"
"d<3>v" "d_3v"
"d<2>v" "d_2v"
"d<1>v" "d_1v"
"d<0>v" "d_0v"
"a<1>v" "a_1v"
"net39v" "net39v"
"bselv" "bselv"
"d_ackv" "d_ackv"
"net23v" "net23v"
"a<2>v" "a_2v"
"a<0>v" "a_0v"
"b<3>v" "b_3v"
"b<2>v" "b_2v"
"b<1>v" "b_1v"
"b<0>v" "b_0v"
"c<3>v" "c_3v"
"c<2>v" "c_2v"
"c<1>v" "c_1v"
"c<0>v" "c_0v"
"c_ackv" "c_ackv"
"ackv" "ackv"
"dselv" "dselv"
"a_ackv" "a_ackv"
"cselv" "cselv"
"net28v" "net28v"
"net29v" "net29v"
"net26v" "net26v"
"net25v" "net25v"
"net027v" "net027v"
"net42v" "net42v"
"net32v" "net32v"
"net030v" "net030v"
"net031v" "net031v"
"net24v" "net24v"
"net31v" "net31v"
"net034v" "net034v"
"net035v" "net035v"
"net27v" "net27v"
"net22v" "net22v"
"net038v" "net038v"
"net039v" "net039v"
"net30v" "net30v"
"net21v" "net21v"
"net042v" "net042v"
"net41v" "net41v"
"aselv" "aselv"
