HEADER
"PSFversion" "1.00"
"n<1>v" "n_1v"
"n<0>v" "n_0v"
"xo<0>v" "xo_0v"
"out<1>v" "out_1v"
"in<1>v" "in_1v"
"xav" "xav"
"nx<0>v" "nx_0v"
"nx<1>v" "nx_1v"
"nxav" "nxav"
"in<0>v" "in_0v"
"xo<1>v" "xo_1v"
"ackv" "ackv"
"out<0>v" "out_0v"
"ninav" "ninav"
