HEADER
"PSFversion" "1.00"
"net0256v" "net0256v"
"A<15>v" "A_15v"
"A<14>v" "A_14v"
"A<13>v" "A_13v"
"A<12>v" "A_12v"
"RW<1>v" "RW_1v"
"RW<0>v" "RW_0v"
"W0_3<3>v" "W0_3_3v"
"W0_3<2>v" "W0_3_2v"
"W0_3<1>v" "W0_3_1v"
"W0_3<0>v" "W0_3_0v"
"net087<0>v" "net087_0v"
"net087<1>v" "net087_1v"
"net087<2>v" "net087_2v"
"net087<3>v" "net087_3v"
"net087<4>v" "net087_4v"
"net087<5>v" "net087_5v"
"net087<6>v" "net087_6v"
"net087<7>v" "net087_7v"
"net087<8>v" "net087_8v"
"net087<9>v" "net087_9v"
"net087<10>v" "net087_10v"
"net087<11>v" "net087_11v"
"net087<12>v" "net087_12v"
"net087<13>v" "net087_13v"
"net087<14>v" "net087_14v"
"net087<15>v" "net087_15v"
"net087<16>v" "net087_16v"
"net087<17>v" "net087_17v"
"net087<18>v" "net087_18v"
"net087<19>v" "net087_19v"
"net087<20>v" "net087_20v"
"net087<21>v" "net087_21v"
"net087<22>v" "net087_22v"
"net087<23>v" "net087_23v"
"net087<24>v" "net087_24v"
"net087<25>v" "net087_25v"
"net087<26>v" "net087_26v"
"net087<27>v" "net087_27v"
"net087<28>v" "net087_28v"
"net087<29>v" "net087_29v"
"net087<30>v" "net087_30v"
"net087<31>v" "net087_31v"
"net087<32>v" "net087_32v"
"net087<33>v" "net087_33v"
"net087<34>v" "net087_34v"
"net087<35>v" "net087_35v"
"net087<36>v" "net087_36v"
"net087<37>v" "net087_37v"
"net087<38>v" "net087_38v"
"net087<39>v" "net087_39v"
"net087<40>v" "net087_40v"
"net087<41>v" "net087_41v"
"net087<42>v" "net087_42v"
"net087<43>v" "net087_43v"
"net087<44>v" "net087_44v"
"net087<45>v" "net087_45v"
"net087<46>v" "net087_46v"
"net087<47>v" "net087_47v"
"net087<48>v" "net087_48v"
"net087<49>v" "net087_49v"
"net087<50>v" "net087_50v"
"net087<51>v" "net087_51v"
"net087<52>v" "net087_52v"
"net087<53>v" "net087_53v"
"net087<54>v" "net087_54v"
"net087<55>v" "net087_55v"
"net087<56>v" "net087_56v"
"net087<57>v" "net087_57v"
"net087<58>v" "net087_58v"
"net087<59>v" "net087_59v"
"net087<60>v" "net087_60v"
"net087<61>v" "net087_61v"
"net087<62>v" "net087_62v"
"net087<63>v" "net087_63v"
"A<19>v" "A_19v"
"A<18>v" "A_18v"
"A<17>v" "A_17v"
"A<16>v" "A_16v"
"A<11>v" "A_11v"
"A<10>v" "A_10v"
"A<9>v" "A_9v"
"A<8>v" "A_8v"
"A<7>v" "A_7v"
"A<6>v" "A_6v"
"A<5>v" "A_5v"
"A<4>v" "A_4v"
"A<3>v" "A_3v"
"A<2>v" "A_2v"
"A<1>v" "A_1v"
"A<0>v" "A_0v"
"WD_8of32<19>v" "WD_8of32_19v"
"WD_8of32<18>v" "WD_8of32_18v"
"WD_8of32<17>v" "WD_8of32_17v"
"WD_8of32<16>v" "WD_8of32_16v"
"WD_Ack<7>v" "WD_Ack_7v"
"WD_Ack<6>v" "WD_Ack_6v"
"WD_Ack<5>v" "WD_Ack_5v"
"WD_Ack<4>v" "WD_Ack_4v"
"WD_Ack<3>v" "WD_Ack_3v"
"WD_Ack<2>v" "WD_Ack_2v"
"WD_Ack<1>v" "WD_Ack_1v"
"WD_Ack<0>v" "WD_Ack_0v"
"B0_4<3>v" "B0_4_3v"
"B0_4<2>v" "B0_4_2v"
"B0_4<1>v" "B0_4_1v"
"B0_4<0>v" "B0_4_0v"
"~R0_3<3>v" "\\~R0_3_3v"
"~R0_3<2>v" "\\~R0_3_2v"
"~R0_3<1>v" "\\~R0_3_1v"
"~R0_3<0>v" "\\~R0_3_0v"
"RD_Ack<3>v" "RD_Ack_3v"
"RD_Ack<2>v" "RD_Ack_2v"
"W0_1<3>v" "W0_1_3v"
"W0_1<2>v" "W0_1_2v"
"W0_1<1>v" "W0_1_1v"
"W0_1<0>v" "W0_1_0v"
"RD_8of32<3>v" "RD_8of32_3v"
"RD_8of32<2>v" "RD_8of32_2v"
"RD_8of32<1>v" "RD_8of32_1v"
"RD_8of32<0>v" "RD_8of32_0v"
"WD_8of32<7>v" "WD_8of32_7v"
"WD_8of32<6>v" "WD_8of32_6v"
"WD_8of32<5>v" "WD_8of32_5v"
"WD_8of32<4>v" "WD_8of32_4v"
"Ackv" "Ackv"
"RD_Ack<7>v" "RD_Ack_7v"
"RD_Ack<6>v" "RD_Ack_6v"
"RD_Ack<5>v" "RD_Ack_5v"
"RD_Ack<4>v" "RD_Ack_4v"
"RD_Ack<1>v" "RD_Ack_1v"
"RD_Ack<0>v" "RD_Ack_0v"
"ck<3>v" "ck_3v"
"ck<2>v" "ck_2v"
"WD_8of32<23>v" "WD_8of32_23v"
"WD_8of32<22>v" "WD_8of32_22v"
"WD_8of32<21>v" "WD_8of32_21v"
"WD_8of32<20>v" "WD_8of32_20v"
"~R0_1<3>v" "\\~R0_1_3v"
"~R0_1<2>v" "\\~R0_1_2v"
"~R0_1<1>v" "\\~R0_1_1v"
"~R0_1<0>v" "\\~R0_1_0v"
"WD_8of32<3>v" "WD_8of32_3v"
"WD_8of32<2>v" "WD_8of32_2v"
"WD_8of32<1>v" "WD_8of32_1v"
"WD_8of32<0>v" "WD_8of32_0v"
"net027v" "net027v"
"WD_8of32<27>v" "WD_8of32_27v"
"WD_8of32<26>v" "WD_8of32_26v"
"WD_8of32<25>v" "WD_8of32_25v"
"WD_8of32<24>v" "WD_8of32_24v"
"WD_8of32<31>v" "WD_8of32_31v"
"WD_8of32<30>v" "WD_8of32_30v"
"WD_8of32<29>v" "WD_8of32_29v"
"WD_8of32<28>v" "WD_8of32_28v"
"RD_8of32<19>v" "RD_8of32_19v"
"RD_8of32<18>v" "RD_8of32_18v"
"RD_8of32<17>v" "RD_8of32_17v"
"RD_8of32<16>v" "RD_8of32_16v"
"ck<0>v" "ck_0v"
"W0_2<3>v" "W0_2_3v"
"W0_2<2>v" "W0_2_2v"
"W0_2<1>v" "W0_2_1v"
"W0_2<0>v" "W0_2_0v"
"~R1_4<3>v" "\\~R1_4_3v"
"~R1_4<2>v" "\\~R1_4_2v"
"~R1_4<1>v" "\\~R1_4_1v"
"~R1_4<0>v" "\\~R1_4_0v"
"ck<1>v" "ck_1v"
"RD_8of32<11>v" "RD_8of32_11v"
"RD_8of32<10>v" "RD_8of32_10v"
"RD_8of32<9>v" "RD_8of32_9v"
"RD_8of32<8>v" "RD_8of32_8v"
"RD_8of32<23>v" "RD_8of32_23v"
"RD_8of32<22>v" "RD_8of32_22v"
"RD_8of32<21>v" "RD_8of32_21v"
"RD_8of32<20>v" "RD_8of32_20v"
"WD_8of32<15>v" "WD_8of32_15v"
"WD_8of32<14>v" "WD_8of32_14v"
"WD_8of32<13>v" "WD_8of32_13v"
"WD_8of32<12>v" "WD_8of32_12v"
"WD_8of32<11>v" "WD_8of32_11v"
"WD_8of32<10>v" "WD_8of32_10v"
"WD_8of32<9>v" "WD_8of32_9v"
"WD_8of32<8>v" "WD_8of32_8v"
"B1_1<3>v" "B1_1_3v"
"B1_1<2>v" "B1_1_2v"
"B1_1<1>v" "B1_1_1v"
"B1_1<0>v" "B1_1_0v"
"B1_2<3>v" "B1_2_3v"
"B1_2<2>v" "B1_2_2v"
"B1_2<1>v" "B1_2_1v"
"B1_2<0>v" "B1_2_0v"
"net096<0>v" "net096_0v"
"net096<1>v" "net096_1v"
"net096<2>v" "net096_2v"
"net096<3>v" "net096_3v"
"net096<4>v" "net096_4v"
"net096<5>v" "net096_5v"
"net096<6>v" "net096_6v"
"net096<7>v" "net096_7v"
"net096<8>v" "net096_8v"
"net096<9>v" "net096_9v"
"net096<10>v" "net096_10v"
"net096<11>v" "net096_11v"
"net096<12>v" "net096_12v"
"net096<13>v" "net096_13v"
"net096<14>v" "net096_14v"
"net096<15>v" "net096_15v"
"net096<16>v" "net096_16v"
"net096<17>v" "net096_17v"
"net096<18>v" "net096_18v"
"net096<19>v" "net096_19v"
"net096<20>v" "net096_20v"
"net096<21>v" "net096_21v"
"net096<22>v" "net096_22v"
"net096<23>v" "net096_23v"
"net096<24>v" "net096_24v"
"net096<25>v" "net096_25v"
"net096<26>v" "net096_26v"
"net096<27>v" "net096_27v"
"net096<28>v" "net096_28v"
"net096<29>v" "net096_29v"
"net096<30>v" "net096_30v"
"net096<31>v" "net096_31v"
"net096<32>v" "net096_32v"
"net096<33>v" "net096_33v"
"net096<34>v" "net096_34v"
"net096<35>v" "net096_35v"
"net096<36>v" "net096_36v"
"net096<37>v" "net096_37v"
"net096<38>v" "net096_38v"
"net096<39>v" "net096_39v"
"net096<40>v" "net096_40v"
"net096<41>v" "net096_41v"
"net096<42>v" "net096_42v"
"net096<43>v" "net096_43v"
"net096<44>v" "net096_44v"
"net096<45>v" "net096_45v"
"net096<46>v" "net096_46v"
"net096<47>v" "net096_47v"
"net096<48>v" "net096_48v"
"net096<49>v" "net096_49v"
"net096<50>v" "net096_50v"
"net096<51>v" "net096_51v"
"net096<52>v" "net096_52v"
"net096<53>v" "net096_53v"
"net096<54>v" "net096_54v"
"net096<55>v" "net096_55v"
"net096<56>v" "net096_56v"
"net096<57>v" "net096_57v"
"net096<58>v" "net096_58v"
"net096<59>v" "net096_59v"
"net096<60>v" "net096_60v"
"net096<61>v" "net096_61v"
"net096<62>v" "net096_62v"
"net096<63>v" "net096_63v"
"net0157<0>v" "net0157_0v"
"net0157<1>v" "net0157_1v"
"net0157<2>v" "net0157_2v"
"net0157<3>v" "net0157_3v"
"net0157<4>v" "net0157_4v"
"net0157<5>v" "net0157_5v"
"net0157<6>v" "net0157_6v"
"net0157<7>v" "net0157_7v"
"net0157<8>v" "net0157_8v"
"net0157<9>v" "net0157_9v"
"net0157<10>v" "net0157_10v"
"net0157<11>v" "net0157_11v"
"net0157<12>v" "net0157_12v"
"net0157<13>v" "net0157_13v"
"net0157<14>v" "net0157_14v"
"net0157<15>v" "net0157_15v"
"net0157<16>v" "net0157_16v"
"net0157<17>v" "net0157_17v"
"net0157<18>v" "net0157_18v"
"net0157<19>v" "net0157_19v"
"net0157<20>v" "net0157_20v"
"net0157<21>v" "net0157_21v"
"net0157<22>v" "net0157_22v"
"net0157<23>v" "net0157_23v"
"net0157<24>v" "net0157_24v"
"net0157<25>v" "net0157_25v"
"net0157<26>v" "net0157_26v"
"net0157<27>v" "net0157_27v"
"net0157<28>v" "net0157_28v"
"net0157<29>v" "net0157_29v"
"net0157<30>v" "net0157_30v"
"net0157<31>v" "net0157_31v"
"net0157<32>v" "net0157_32v"
"net0157<33>v" "net0157_33v"
"net0157<34>v" "net0157_34v"
"net0157<35>v" "net0157_35v"
"net0157<36>v" "net0157_36v"
"net0157<37>v" "net0157_37v"
"net0157<38>v" "net0157_38v"
"net0157<39>v" "net0157_39v"
"net0157<40>v" "net0157_40v"
"net0157<41>v" "net0157_41v"
"net0157<42>v" "net0157_42v"
"net0157<43>v" "net0157_43v"
"net0157<44>v" "net0157_44v"
"net0157<45>v" "net0157_45v"
"net0157<46>v" "net0157_46v"
"net0157<47>v" "net0157_47v"
"net0157<48>v" "net0157_48v"
"net0157<49>v" "net0157_49v"
"net0157<50>v" "net0157_50v"
"net0157<51>v" "net0157_51v"
"net0157<52>v" "net0157_52v"
"net0157<53>v" "net0157_53v"
"net0157<54>v" "net0157_54v"
"net0157<55>v" "net0157_55v"
"net0157<56>v" "net0157_56v"
"net0157<57>v" "net0157_57v"
"net0157<58>v" "net0157_58v"
"net0157<59>v" "net0157_59v"
"net0157<60>v" "net0157_60v"
"net0157<61>v" "net0157_61v"
"net0157<62>v" "net0157_62v"
"net0157<63>v" "net0157_63v"
"~R1_1<3>v" "\\~R1_1_3v"
"~R1_1<2>v" "\\~R1_1_2v"
"~R1_1<1>v" "\\~R1_1_1v"
"~R1_1<0>v" "\\~R1_1_0v"
"net042v" "net042v"
"net0173v" "net0173v"
"B0_1<3>v" "B0_1_3v"
"B0_1<2>v" "B0_1_2v"
"B0_1<1>v" "B0_1_1v"
"B0_1<0>v" "B0_1_0v"
"net0252v" "net0252v"
"B0_2<3>v" "B0_2_3v"
"B0_2<2>v" "B0_2_2v"
"B0_2<1>v" "B0_2_1v"
"B0_2<0>v" "B0_2_0v"
"RD_8of32<15>v" "RD_8of32_15v"
"RD_8of32<14>v" "RD_8of32_14v"
"RD_8of32<13>v" "RD_8of32_13v"
"RD_8of32<12>v" "RD_8of32_12v"
"B0_3<3>v" "B0_3_3v"
"B0_3<2>v" "B0_3_2v"
"B0_3<1>v" "B0_3_1v"
"B0_3<0>v" "B0_3_0v"
"W1_1<3>v" "W1_1_3v"
"W1_1<2>v" "W1_1_2v"
"W1_1<1>v" "W1_1_1v"
"W1_1<0>v" "W1_1_0v"
"S_1<7>v" "S_1_7v"
"S_1<6>v" "S_1_6v"
"S_1<5>v" "S_1_5v"
"S_1<4>v" "S_1_4v"
"S_1<3>v" "S_1_3v"
"S_1<2>v" "S_1_2v"
"S_1<1>v" "S_1_1v"
"S_1<0>v" "S_1_0v"
"~R0_4<3>v" "\\~R0_4_3v"
"~R0_4<2>v" "\\~R0_4_2v"
"~R0_4<1>v" "\\~R0_4_1v"
"~R0_4<0>v" "\\~R0_4_0v"
"net059<0>v" "net059_0v"
"net059<1>v" "net059_1v"
"net059<2>v" "net059_2v"
"net059<3>v" "net059_3v"
"net059<4>v" "net059_4v"
"net059<5>v" "net059_5v"
"net059<6>v" "net059_6v"
"net059<7>v" "net059_7v"
"W0_4<3>v" "W0_4_3v"
"W0_4<2>v" "W0_4_2v"
"W0_4<1>v" "W0_4_1v"
"W0_4<0>v" "W0_4_0v"
"W1_2<3>v" "W1_2_3v"
"W1_2<2>v" "W1_2_2v"
"W1_2<1>v" "W1_2_1v"
"W1_2<0>v" "W1_2_0v"
"RD_8of32<27>v" "RD_8of32_27v"
"RD_8of32<26>v" "RD_8of32_26v"
"RD_8of32<25>v" "RD_8of32_25v"
"RD_8of32<24>v" "RD_8of32_24v"
"A_1<63>v" "A_1_63v"
"A_1<62>v" "A_1_62v"
"A_1<61>v" "A_1_61v"
"A_1<60>v" "A_1_60v"
"A_1<59>v" "A_1_59v"
"A_1<58>v" "A_1_58v"
"A_1<57>v" "A_1_57v"
"A_1<56>v" "A_1_56v"
"A_1<55>v" "A_1_55v"
"A_1<54>v" "A_1_54v"
"A_1<53>v" "A_1_53v"
"A_1<52>v" "A_1_52v"
"A_1<51>v" "A_1_51v"
"A_1<50>v" "A_1_50v"
"A_1<49>v" "A_1_49v"
"A_1<48>v" "A_1_48v"
"A_1<47>v" "A_1_47v"
"A_1<46>v" "A_1_46v"
"A_1<45>v" "A_1_45v"
"A_1<44>v" "A_1_44v"
"A_1<43>v" "A_1_43v"
"A_1<42>v" "A_1_42v"
"A_1<41>v" "A_1_41v"
"A_1<40>v" "A_1_40v"
"A_1<39>v" "A_1_39v"
"A_1<38>v" "A_1_38v"
"A_1<37>v" "A_1_37v"
"A_1<36>v" "A_1_36v"
"A_1<35>v" "A_1_35v"
"A_1<34>v" "A_1_34v"
"A_1<33>v" "A_1_33v"
"A_1<32>v" "A_1_32v"
"A_1<31>v" "A_1_31v"
"A_1<30>v" "A_1_30v"
"A_1<29>v" "A_1_29v"
"A_1<28>v" "A_1_28v"
"A_1<27>v" "A_1_27v"
"A_1<26>v" "A_1_26v"
"A_1<25>v" "A_1_25v"
"A_1<24>v" "A_1_24v"
"A_1<23>v" "A_1_23v"
"A_1<22>v" "A_1_22v"
"A_1<21>v" "A_1_21v"
"A_1<20>v" "A_1_20v"
"A_1<19>v" "A_1_19v"
"A_1<18>v" "A_1_18v"
"A_1<17>v" "A_1_17v"
"A_1<16>v" "A_1_16v"
"A_1<15>v" "A_1_15v"
"A_1<14>v" "A_1_14v"
"A_1<13>v" "A_1_13v"
"A_1<12>v" "A_1_12v"
"A_1<11>v" "A_1_11v"
"A_1<10>v" "A_1_10v"
"A_1<9>v" "A_1_9v"
"A_1<8>v" "A_1_8v"
"A_1<7>v" "A_1_7v"
"A_1<6>v" "A_1_6v"
"A_1<5>v" "A_1_5v"
"A_1<4>v" "A_1_4v"
"A_1<3>v" "A_1_3v"
"A_1<2>v" "A_1_2v"
"A_1<1>v" "A_1_1v"
"A_1<0>v" "A_1_0v"
"ValAddrv" "ValAddrv"
"B1_3<3>v" "B1_3_3v"
"B1_3<2>v" "B1_3_2v"
"B1_3<1>v" "B1_3_1v"
"B1_3<0>v" "B1_3_0v"
"net0260v" "net0260v"
"RD_8of32<7>v" "RD_8of32_7v"
"RD_8of32<6>v" "RD_8of32_6v"
"RD_8of32<5>v" "RD_8of32_5v"
"RD_8of32<4>v" "RD_8of32_4v"
"G01v" "G01v"
"G02v" "G02v"
"G03v" "G03v"
"net0170v" "net0170v"
"G04v" "G04v"
"~R0_2<3>v" "\\~R0_2_3v"
"~R0_2<2>v" "\\~R0_2_2v"
"~R0_2<1>v" "\\~R0_2_1v"
"~R0_2<0>v" "\\~R0_2_0v"
"RD_8of32<31>v" "RD_8of32_31v"
"RD_8of32<30>v" "RD_8of32_30v"
"RD_8of32<29>v" "RD_8of32_29v"
"RD_8of32<28>v" "RD_8of32_28v"
"B1_4<3>v" "B1_4_3v"
"B1_4<2>v" "B1_4_2v"
"B1_4<1>v" "B1_4_1v"
"B1_4<0>v" "B1_4_0v"
"~R1_3<3>v" "\\~R1_3_3v"
"~R1_3<2>v" "\\~R1_3_2v"
"~R1_3<1>v" "\\~R1_3_1v"
"~R1_3<0>v" "\\~R1_3_0v"
"W1_3<3>v" "W1_3_3v"
"W1_3<2>v" "W1_3_2v"
"W1_3<1>v" "W1_3_1v"
"W1_3<0>v" "W1_3_0v"
"~R1_2<3>v" "\\~R1_2_3v"
"~R1_2<2>v" "\\~R1_2_2v"
"~R1_2<1>v" "\\~R1_2_1v"
"~R1_2<0>v" "\\~R1_2_0v"
"Resetv" "Resetv"
"net0131<0>v" "net0131_0v"
"net0131<1>v" "net0131_1v"
"net0131<2>v" "net0131_2v"
"net0131<3>v" "net0131_3v"
"net0131<4>v" "net0131_4v"
"net0131<5>v" "net0131_5v"
"net0131<6>v" "net0131_6v"
"net0131<7>v" "net0131_7v"
"net0264v" "net0264v"
"W1_4<3>v" "W1_4_3v"
"W1_4<2>v" "W1_4_2v"
"W1_4<1>v" "W1_4_1v"
"W1_4<0>v" "W1_4_0v"
"net068<0>v" "net068_0v"
"net068<1>v" "net068_1v"
"net068<2>v" "net068_2v"
"net068<3>v" "net068_3v"
"net068<4>v" "net068_4v"
"net068<5>v" "net068_5v"
"net068<6>v" "net068_6v"
"net068<7>v" "net068_7v"
"Ctrl_Ack<4>v" "Ctrl_Ack_4v"
"Ctrl_Ack<3>v" "Ctrl_Ack_3v"
"Ctrl_Ack<2>v" "Ctrl_Ack_2v"
"Ctrl_Ack<1>v" "Ctrl_Ack_1v"
"Ctrl_Ack<0>v" "Ctrl_Ack_0v"
