HEADER
"PSFversion" "1.00"
"I21n I20n" "nor4_1x"
"I19n I18n I15n I14n I0n I1n I7n I6n" "TH33"
"I24n" "nand_1x"
"a<1>v" ":1v"
"a<0>v" ":2v"
"a_ackv" ":3v"
"ackv" ":4v"
"aselv" ":5v"
"b<1>v" ":6v"
"b<0>v" ":7v"
"b_ackv" ":8v"
"bselv" ":9v"
"c<1>v" ":10v"
"c<0>v" ":11v"
"c_ackv" ":12v"
"cselv" ":13v"
"d<1>v" ":14v"
"d<0>v" ":15v"
"d_ackv" ":16v"
"dselv" ":17v"
"in<1>v" ":18v"
"in<0>v" ":19v"
