HEADER
"PSFversion" "1.00"
"A<15>v" "A_15v"
"A<14>v" "A_14v"
"A<13>v" "A_13v"
"A<12>v" "A_12v"
"A<11>v" "A_11v"
"A<10>v" "A_10v"
"A<9>v" "A_9v"
"A<8>v" "A_8v"
"A<7>v" "A_7v"
"A<6>v" "A_6v"
"A<5>v" "A_5v"
"A<4>v" "A_4v"
"A<3>v" "A_3v"
"A<2>v" "A_2v"
"A<1>v" "A_1v"
"A<0>v" "A_0v"
"1of4_2<0>v" "_1of4_2_0v"
"Env" "Env"
"EnOutv" "EnOutv"
"1of4_1<2>v" "_1of4_1_2v"
"1of4_2<3>v" "_1of4_2_3v"
"1of4_1<3>v" "_1of4_1_3v"
"1of4_1<1>v" "_1of4_1_1v"
"1of4_1<0>v" "_1of4_1_0v"
"1of4_2<2>v" "_1of4_2_2v"
"1of4_2<1>v" "_1of4_2_1v"
