HEADER
"PSFversion" "1.00"
"M5n M4n M3n M2n M1n M0n" "NCSU_TechLib_FreePDK15_nfet_spectre"
"M11n M10n M9n M8n M7n M6n" "NCSU_TechLib_FreePDK15_pfet_spectre"
"Av" ":1v"
"Bv" ":2v"
"Yv" ":3v"
