HEADER
"PSFversion" "1.00"
"M5n M3n M2n M1n M0n" "NCSU_TechLib_FreePDK15_nfet_spectre"
"~R0v" ":1v"
"~R1v" ":2v"
"Gov" ":3v"
"SM0<0>v" ":4v"
"SM0<1>v" ":5v"
"SM1<0>v" ":6v"
"SM1<1>v" ":7v"
"GNDv" ":8v"
