HEADER
"PSFversion" "1.00"
"Bk1_RW<1>v" "Bk1_RW_1v"
"Bk1_RW<0>v" "Bk1_RW_0v"
"Dselv" "Dselv"
"Bk3_Addr<15>v" "Bk3_Addr_15v"
"Bk3_Addr<14>v" "Bk3_Addr_14v"
"Bk3_Addr<13>v" "Bk3_Addr_13v"
"Bk3_Addr<12>v" "Bk3_Addr_12v"
"Bk3_RW<1>v" "Bk3_RW_1v"
"Bk3_RW<0>v" "Bk3_RW_0v"
"Bk0_Addr<19>v" "Bk0_Addr_19v"
"Bk0_Addr<18>v" "Bk0_Addr_18v"
"Bk0_Addr<17>v" "Bk0_Addr_17v"
"Bk0_Addr<16>v" "Bk0_Addr_16v"
"Bk0_Addr<15>v" "Bk0_Addr_15v"
"Bk0_Addr<14>v" "Bk0_Addr_14v"
"Bk0_Addr<13>v" "Bk0_Addr_13v"
"Bk0_Addr<12>v" "Bk0_Addr_12v"
"Bk0_Addr<11>v" "Bk0_Addr_11v"
"Bk0_Addr<10>v" "Bk0_Addr_10v"
"Bk0_Addr<9>v" "Bk0_Addr_9v"
"Bk0_Addr<8>v" "Bk0_Addr_8v"
"Bk0_Addr<7>v" "Bk0_Addr_7v"
"Bk0_Addr<6>v" "Bk0_Addr_6v"
"Bk0_Addr<5>v" "Bk0_Addr_5v"
"Bk0_Addr<4>v" "Bk0_Addr_4v"
"Bk0_Addr<3>v" "Bk0_Addr_3v"
"Bk0_Addr<2>v" "Bk0_Addr_2v"
"Bk0_Addr<1>v" "Bk0_Addr_1v"
"Bk0_Addr<0>v" "Bk0_Addr_0v"
"Bk2_Addr<15>v" "Bk2_Addr_15v"
"Bk2_Addr<14>v" "Bk2_Addr_14v"
"Bk2_Addr<13>v" "Bk2_Addr_13v"
"Bk2_Addr<12>v" "Bk2_Addr_12v"
"A<3>v" "A_3v"
"A<2>v" "A_2v"
"A<1>v" "A_1v"
"A<0>v" "A_0v"
"Bk2_RW<1>v" "Bk2_RW_1v"
"Bk2_RW<0>v" "Bk2_RW_0v"
"Aselv" "Aselv"
"A<7>v" "A_7v"
"A<6>v" "A_6v"
"A<5>v" "A_5v"
"A<4>v" "A_4v"
"Bk3_Addr<19>v" "Bk3_Addr_19v"
"Bk3_Addr<18>v" "Bk3_Addr_18v"
"Bk3_Addr<17>v" "Bk3_Addr_17v"
"Bk3_Addr<16>v" "Bk3_Addr_16v"
"Bselv" "Bselv"
"A<19>v" "A_19v"
"A<18>v" "A_18v"
"A<17>v" "A_17v"
"A<16>v" "A_16v"
"A<15>v" "A_15v"
"A<14>v" "A_14v"
"A<13>v" "A_13v"
"A<12>v" "A_12v"
"A<11>v" "A_11v"
"A<10>v" "A_10v"
"A<9>v" "A_9v"
"A<8>v" "A_8v"
"Cselv" "Cselv"
"RW_Ackv" "RW_Ackv"
"Ack<4>v" "Ack_4v"
"Ack<3>v" "Ack_3v"
"Ack<2>v" "Ack_2v"
"Ack<1>v" "Ack_1v"
"Ack<0>v" "Ack_0v"
"Bk1_RWAckv" "Bk1_RWAckv"
"Bk0_Ack<3>v" "Bk0_Ack_3v"
"Bk0_Ack<2>v" "Bk0_Ack_2v"
"Bk0_Ack<1>v" "Bk0_Ack_1v"
"Bk0_Ack<0>v" "Bk0_Ack_0v"
"Bk0_Ack<4>v" "Bk0_Ack_4v"
"Bk0_RWAckv" "Bk0_RWAckv"
"Bk3_Ack<4>v" "Bk3_Ack_4v"
"Bk3_Ack<3>v" "Bk3_Ack_3v"
"Bk3_Ack<2>v" "Bk3_Ack_2v"
"Bk3_Ack<1>v" "Bk3_Ack_1v"
"Bk3_Ack<0>v" "Bk3_Ack_0v"
"Bk3_Addr<11>v" "Bk3_Addr_11v"
"Bk3_Addr<10>v" "Bk3_Addr_10v"
"Bk3_Addr<9>v" "Bk3_Addr_9v"
"Bk3_Addr<8>v" "Bk3_Addr_8v"
"Bk3_Addr<7>v" "Bk3_Addr_7v"
"Bk3_Addr<6>v" "Bk3_Addr_6v"
"Bk3_Addr<5>v" "Bk3_Addr_5v"
"Bk3_Addr<4>v" "Bk3_Addr_4v"
"Bk3_Addr<3>v" "Bk3_Addr_3v"
"Bk3_Addr<2>v" "Bk3_Addr_2v"
"Bk3_Addr<1>v" "Bk3_Addr_1v"
"Bk3_Addr<0>v" "Bk3_Addr_0v"
"Bk0_RW<1>v" "Bk0_RW_1v"
"Bk0_RW<0>v" "Bk0_RW_0v"
"Bk2_RWAckv" "Bk2_RWAckv"
"Bk1_Addr<19>v" "Bk1_Addr_19v"
"Bk1_Addr<18>v" "Bk1_Addr_18v"
"Bk1_Addr<17>v" "Bk1_Addr_17v"
"Bk1_Addr<16>v" "Bk1_Addr_16v"
"Bk1_Addr<15>v" "Bk1_Addr_15v"
"Bk1_Addr<14>v" "Bk1_Addr_14v"
"Bk1_Addr<13>v" "Bk1_Addr_13v"
"Bk1_Addr<12>v" "Bk1_Addr_12v"
"Bk1_Addr<11>v" "Bk1_Addr_11v"
"Bk1_Addr<10>v" "Bk1_Addr_10v"
"Bk1_Addr<9>v" "Bk1_Addr_9v"
"Bk1_Addr<8>v" "Bk1_Addr_8v"
"Bk1_Addr<7>v" "Bk1_Addr_7v"
"Bk1_Addr<6>v" "Bk1_Addr_6v"
"Bk1_Addr<5>v" "Bk1_Addr_5v"
"Bk1_Addr<4>v" "Bk1_Addr_4v"
"Bk1_Addr<3>v" "Bk1_Addr_3v"
"Bk1_Addr<2>v" "Bk1_Addr_2v"
"Bk1_Addr<1>v" "Bk1_Addr_1v"
"Bk1_Addr<0>v" "Bk1_Addr_0v"
"Bk2_Ack<4>v" "Bk2_Ack_4v"
"Bk2_Ack<3>v" "Bk2_Ack_3v"
"Bk2_Ack<2>v" "Bk2_Ack_2v"
"Bk2_Ack<1>v" "Bk2_Ack_1v"
"Bk2_Ack<0>v" "Bk2_Ack_0v"
"Bk2_Addr<19>v" "Bk2_Addr_19v"
"Bk2_Addr<18>v" "Bk2_Addr_18v"
"Bk2_Addr<17>v" "Bk2_Addr_17v"
"Bk2_Addr<16>v" "Bk2_Addr_16v"
"Bk2_Addr<11>v" "Bk2_Addr_11v"
"Bk2_Addr<10>v" "Bk2_Addr_10v"
"Bk2_Addr<9>v" "Bk2_Addr_9v"
"Bk2_Addr<8>v" "Bk2_Addr_8v"
"Bk2_Addr<7>v" "Bk2_Addr_7v"
"Bk2_Addr<6>v" "Bk2_Addr_6v"
"Bk2_Addr<5>v" "Bk2_Addr_5v"
"Bk2_Addr<4>v" "Bk2_Addr_4v"
"Bk2_Addr<3>v" "Bk2_Addr_3v"
"Bk2_Addr<2>v" "Bk2_Addr_2v"
"Bk2_Addr<1>v" "Bk2_Addr_1v"
"Bk2_Addr<0>v" "Bk2_Addr_0v"
"RW<1>v" "RW_1v"
"RW<0>v" "RW_0v"
"Bk1_Ack<3>v" "Bk1_Ack_3v"
"Bk1_Ack<2>v" "Bk1_Ack_2v"
"Bk1_Ack<1>v" "Bk1_Ack_1v"
"Bk1_Ack<0>v" "Bk1_Ack_0v"
"Bk3_RWAckv" "Bk3_RWAckv"
"Bk1_Ack<4>v" "Bk1_Ack_4v"
