HEADER
"PSFversion" "1.00"
"I1n I0n" "_sub27"
"Ack<7>v" ":1v"
"Ack<6>v" ":2v"
"Ack<5>v" ":3v"
"Ack<4>v" ":4v"
"Ack<3>v" ":5v"
"Ack<2>v" ":6v"
"Ack<1>v" ":7v"
"Ack<0>v" ":8v"
"In1_1of4<3>v" ":9v"
"In1_1of4<2>v" ":10v"
"In1_1of4<1>v" ":11v"
"In1_1of4<0>v" ":12v"
"In2_1of4<3>v" ":13v"
"In2_1of4<2>v" ":14v"
"In2_1of4<1>v" ":15v"
"In2_1of4<0>v" ":16v"
"In3_1of4<3>v" ":17v"
"In3_1of4<2>v" ":18v"
"In3_1of4<1>v" ":19v"
"In3_1of4<0>v" ":20v"
"In4_1of4<3>v" ":21v"
"In4_1of4<2>v" ":22v"
"In4_1of4<1>v" ":23v"
"In4_1of4<0>v" ":24v"
"In5_1of4<3>v" ":25v"
"In5_1of4<2>v" ":26v"
"In5_1of4<1>v" ":27v"
"In5_1of4<0>v" ":28v"
"In6_1of4<3>v" ":29v"
"In6_1of4<2>v" ":30v"
"In6_1of4<1>v" ":31v"
"In6_1of4<0>v" ":32v"
"In7_1of4<3>v" ":33v"
"In7_1of4<2>v" ":34v"
"In7_1of4<1>v" ":35v"
"In7_1of4<0>v" ":36v"
"In8_1of4<3>v" ":37v"
"In8_1of4<2>v" ":38v"
"In8_1of4<1>v" ":39v"
"In8_1of4<0>v" ":40v"
"In_Ack<7>v" ":41v"
"In_Ack<6>v" ":42v"
"In_Ack<5>v" ":43v"
"In_Ack<4>v" ":44v"
"In_Ack<3>v" ":45v"
"In_Ack<2>v" ":46v"
"In_Ack<1>v" ":47v"
"In_Ack<0>v" ":48v"
"Out1_1of4<3>v" ":49v"
"Out1_1of4<2>v" ":50v"
"Out1_1of4<1>v" ":51v"
"Out1_1of4<0>v" ":52v"
"Out2_1of4<3>v" ":53v"
"Out2_1of4<2>v" ":54v"
"Out2_1of4<1>v" ":55v"
"Out2_1of4<0>v" ":56v"
"Out3_1of4<3>v" ":57v"
"Out3_1of4<2>v" ":58v"
"Out3_1of4<1>v" ":59v"
"Out3_1of4<0>v" ":60v"
"Out4_1of4<3>v" ":61v"
"Out4_1of4<2>v" ":62v"
"Out4_1of4<1>v" ":63v"
"Out4_1of4<0>v" ":64v"
"Out5_1of4<3>v" ":65v"
"Out5_1of4<2>v" ":66v"
"Out5_1of4<1>v" ":67v"
"Out5_1of4<0>v" ":68v"
"Out6_1of4<3>v" ":69v"
"Out6_1of4<2>v" ":70v"
"Out6_1of4<1>v" ":71v"
"Out6_1of4<0>v" ":72v"
"Out7_1of4<3>v" ":73v"
"Out7_1of4<2>v" ":74v"
"Out7_1of4<1>v" ":75v"
"Out7_1of4<0>v" ":76v"
"Out8_1of4<3>v" ":77v"
"Out8_1of4<2>v" ":78v"
"Out8_1of4<1>v" ":79v"
"Out8_1of4<0>v" ":80v"
