HEADER
"PSFversion" "1.00"
"B4_1of4<3>v" "B4_1of4_3v"
"B4_1of4<2>v" "B4_1of4_2v"
"B4_1of4<1>v" "B4_1of4_1v"
"B4_1of4<0>v" "B4_1of4_0v"
"C_Ack<3>v" "C_Ack_3v"
"C_Ack<2>v" "C_Ack_2v"
"C_Ack<1>v" "C_Ack_1v"
"C_Ack<0>v" "C_Ack_0v"
"D1_1of4<3>v" "D1_1of4_3v"
"D1_1of4<2>v" "D1_1of4_2v"
"D1_1of4<1>v" "D1_1of4_1v"
"D1_1of4<0>v" "D1_1of4_0v"
"B_Ack<1>v" "B_Ack_1v"
"C4_1of4<3>v" "C4_1of4_3v"
"C4_1of4<2>v" "C4_1of4_2v"
"C4_1of4<1>v" "C4_1of4_1v"
"C4_1of4<0>v" "C4_1of4_0v"
"C1_1of4<3>v" "C1_1of4_3v"
"C1_1of4<2>v" "C1_1of4_2v"
"C1_1of4<1>v" "C1_1of4_1v"
"C1_1of4<0>v" "C1_1of4_0v"
"B2_1of4<3>v" "B2_1of4_3v"
"B2_1of4<2>v" "B2_1of4_2v"
"B2_1of4<1>v" "B2_1of4_1v"
"B2_1of4<0>v" "B2_1of4_0v"
"D_Ack<3>v" "D_Ack_3v"
"D_Ack<2>v" "D_Ack_2v"
"D_Ack<1>v" "D_Ack_1v"
"Out1_1of4<3>v" "Out1_1of4_3v"
"Out1_1of4<2>v" "Out1_1of4_2v"
"Out1_1of4<1>v" "Out1_1of4_1v"
"Out1_1of4<0>v" "Out1_1of4_0v"
"Dselv" "Dselv"
"B_Ack<3>v" "B_Ack_3v"
"A_Ack<0>v" "A_Ack_0v"
"A3_1of4<3>v" "A3_1of4_3v"
"A3_1of4<2>v" "A3_1of4_2v"
"A3_1of4<1>v" "A3_1of4_1v"
"A3_1of4<0>v" "A3_1of4_0v"
"B_Ack<0>v" "B_Ack_0v"
"D_Ack<0>v" "D_Ack_0v"
"B3_1of4<3>v" "B3_1of4_3v"
"B3_1of4<2>v" "B3_1of4_2v"
"B3_1of4<1>v" "B3_1of4_1v"
"B3_1of4<0>v" "B3_1of4_0v"
"C2_1of4<3>v" "C2_1of4_3v"
"C2_1of4<2>v" "C2_1of4_2v"
"C2_1of4<1>v" "C2_1of4_1v"
"C2_1of4<0>v" "C2_1of4_0v"
"A4_1of4<3>v" "A4_1of4_3v"
"A4_1of4<2>v" "A4_1of4_2v"
"A4_1of4<1>v" "A4_1of4_1v"
"A4_1of4<0>v" "A4_1of4_0v"
"C3_1of4<3>v" "C3_1of4_3v"
"C3_1of4<2>v" "C3_1of4_2v"
"C3_1of4<1>v" "C3_1of4_1v"
"C3_1of4<0>v" "C3_1of4_0v"
"A2_1of4<3>v" "A2_1of4_3v"
"A2_1of4<2>v" "A2_1of4_2v"
"A2_1of4<1>v" "A2_1of4_1v"
"A2_1of4<0>v" "A2_1of4_0v"
"Out3_1of4<3>v" "Out3_1of4_3v"
"Out3_1of4<2>v" "Out3_1of4_2v"
"Out3_1of4<1>v" "Out3_1of4_1v"
"Out3_1of4<0>v" "Out3_1of4_0v"
"D3_1of4<3>v" "D3_1of4_3v"
"D3_1of4<2>v" "D3_1of4_2v"
"D3_1of4<1>v" "D3_1of4_1v"
"D3_1of4<0>v" "D3_1of4_0v"
"A_Ack<1>v" "A_Ack_1v"
"A_Ack<2>v" "A_Ack_2v"
"A_Ack<3>v" "A_Ack_3v"
"Ack<0>v" "Ack_0v"
"Cselv" "Cselv"
"B1_1of4<3>v" "B1_1of4_3v"
"B1_1of4<2>v" "B1_1of4_2v"
"B1_1of4<1>v" "B1_1of4_1v"
"B1_1of4<0>v" "B1_1of4_0v"
"Ack<3>v" "Ack_3v"
"Ack<2>v" "Ack_2v"
"Ack<1>v" "Ack_1v"
"Out2_1of4<3>v" "Out2_1of4_3v"
"Out2_1of4<2>v" "Out2_1of4_2v"
"Out2_1of4<1>v" "Out2_1of4_1v"
"Out2_1of4<0>v" "Out2_1of4_0v"
"B_Ack<2>v" "B_Ack_2v"
"Aselv" "Aselv"
"D2_1of4<3>v" "D2_1of4_3v"
"D2_1of4<2>v" "D2_1of4_2v"
"D2_1of4<1>v" "D2_1of4_1v"
"D2_1of4<0>v" "D2_1of4_0v"
"Out4_1of4<3>v" "Out4_1of4_3v"
"Out4_1of4<2>v" "Out4_1of4_2v"
"Out4_1of4<1>v" "Out4_1of4_1v"
"Out4_1of4<0>v" "Out4_1of4_0v"
"A1_1of4<3>v" "A1_1of4_3v"
"A1_1of4<2>v" "A1_1of4_2v"
"A1_1of4<1>v" "A1_1of4_1v"
"A1_1of4<0>v" "A1_1of4_0v"
"Bselv" "Bselv"
"D4_1of4<3>v" "D4_1of4_3v"
"D4_1of4<2>v" "D4_1of4_2v"
"D4_1of4<1>v" "D4_1of4_1v"
"D4_1of4<0>v" "D4_1of4_0v"
