HEADER
"PSFversion" "1.00"
"I2n I0n" "_sub88"
"A_8of32<31>v" ":1v"
"A_8of32<30>v" ":2v"
"A_8of32<29>v" ":3v"
"A_8of32<28>v" ":4v"
"A_8of32<27>v" ":5v"
"A_8of32<26>v" ":6v"
"A_8of32<25>v" ":7v"
"A_8of32<24>v" ":8v"
"A_8of32<23>v" ":9v"
"A_8of32<22>v" ":10v"
"A_8of32<21>v" ":11v"
"A_8of32<20>v" ":12v"
"A_8of32<19>v" ":13v"
"A_8of32<18>v" ":14v"
"A_8of32<17>v" ":15v"
"A_8of32<16>v" ":16v"
"A_8of32<15>v" ":17v"
"A_8of32<14>v" ":18v"
"A_8of32<13>v" ":19v"
"A_8of32<12>v" ":20v"
"A_8of32<11>v" ":21v"
"A_8of32<10>v" ":22v"
"A_8of32<9>v" ":23v"
"A_8of32<8>v" ":24v"
"A_8of32<7>v" ":25v"
"A_8of32<6>v" ":26v"
"A_8of32<5>v" ":27v"
"A_8of32<4>v" ":28v"
"A_8of32<3>v" ":29v"
"A_8of32<2>v" ":30v"
"A_8of32<1>v" ":31v"
"A_8of32<0>v" ":32v"
"A_Ack<7>v" ":33v"
"A_Ack<6>v" ":34v"
"A_Ack<5>v" ":35v"
"A_Ack<4>v" ":36v"
"A_Ack<3>v" ":37v"
"A_Ack<2>v" ":38v"
"A_Ack<1>v" ":39v"
"A_Ack<0>v" ":40v"
"Ack<7>v" ":41v"
"Ack<6>v" ":42v"
"Ack<5>v" ":43v"
"Ack<4>v" ":44v"
"Ack<3>v" ":45v"
"Ack<2>v" ":46v"
"Ack<1>v" ":47v"
"Ack<0>v" ":48v"
"Aselv" ":49v"
"B_8of32<31>v" ":50v"
"B_8of32<30>v" ":51v"
"B_8of32<29>v" ":52v"
"B_8of32<28>v" ":53v"
"B_8of32<27>v" ":54v"
"B_8of32<26>v" ":55v"
"B_8of32<25>v" ":56v"
"B_8of32<24>v" ":57v"
"B_8of32<23>v" ":58v"
"B_8of32<22>v" ":59v"
"B_8of32<21>v" ":60v"
"B_8of32<20>v" ":61v"
"B_8of32<19>v" ":62v"
"B_8of32<18>v" ":63v"
"B_8of32<17>v" ":64v"
"B_8of32<16>v" ":65v"
"B_8of32<15>v" ":66v"
"B_8of32<14>v" ":67v"
"B_8of32<13>v" ":68v"
"B_8of32<12>v" ":69v"
"B_8of32<11>v" ":70v"
"B_8of32<10>v" ":71v"
"B_8of32<9>v" ":72v"
"B_8of32<8>v" ":73v"
"B_8of32<7>v" ":74v"
"B_8of32<6>v" ":75v"
"B_8of32<5>v" ":76v"
"B_8of32<4>v" ":77v"
"B_8of32<3>v" ":78v"
"B_8of32<2>v" ":79v"
"B_8of32<1>v" ":80v"
"B_8of32<0>v" ":81v"
"B_Ack<7>v" ":82v"
"B_Ack<6>v" ":83v"
"B_Ack<5>v" ":84v"
"B_Ack<4>v" ":85v"
"B_Ack<3>v" ":86v"
"B_Ack<2>v" ":87v"
"B_Ack<1>v" ":88v"
"B_Ack<0>v" ":89v"
"Bselv" ":90v"
"C_8of32<31>v" ":91v"
"C_8of32<30>v" ":92v"
"C_8of32<29>v" ":93v"
"C_8of32<28>v" ":94v"
"C_8of32<27>v" ":95v"
"C_8of32<26>v" ":96v"
"C_8of32<25>v" ":97v"
"C_8of32<24>v" ":98v"
"C_8of32<23>v" ":99v"
"C_8of32<22>v" ":100v"
"C_8of32<21>v" ":101v"
"C_8of32<20>v" ":102v"
"C_8of32<19>v" ":103v"
"C_8of32<18>v" ":104v"
"C_8of32<17>v" ":105v"
"C_8of32<16>v" ":106v"
"C_8of32<15>v" ":107v"
"C_8of32<14>v" ":108v"
"C_8of32<13>v" ":109v"
"C_8of32<12>v" ":110v"
"C_8of32<11>v" ":111v"
"C_8of32<10>v" ":112v"
"C_8of32<9>v" ":113v"
"C_8of32<8>v" ":114v"
"C_8of32<7>v" ":115v"
"C_8of32<6>v" ":116v"
"C_8of32<5>v" ":117v"
"C_8of32<4>v" ":118v"
"C_8of32<3>v" ":119v"
"C_8of32<2>v" ":120v"
"C_8of32<1>v" ":121v"
"C_8of32<0>v" ":122v"
"C_Ack<7>v" ":123v"
"C_Ack<6>v" ":124v"
"C_Ack<5>v" ":125v"
"C_Ack<4>v" ":126v"
"C_Ack<3>v" ":127v"
"C_Ack<2>v" ":128v"
"C_Ack<1>v" ":129v"
"C_Ack<0>v" ":130v"
"Cselv" ":131v"
"D_8of32<31>v" ":132v"
"D_8of32<30>v" ":133v"
"D_8of32<29>v" ":134v"
"D_8of32<28>v" ":135v"
"D_8of32<27>v" ":136v"
"D_8of32<26>v" ":137v"
"D_8of32<25>v" ":138v"
"D_8of32<24>v" ":139v"
"D_8of32<23>v" ":140v"
"D_8of32<22>v" ":141v"
"D_8of32<21>v" ":142v"
"D_8of32<20>v" ":143v"
"D_8of32<19>v" ":144v"
"D_8of32<18>v" ":145v"
"D_8of32<17>v" ":146v"
"D_8of32<16>v" ":147v"
"D_8of32<15>v" ":148v"
"D_8of32<14>v" ":149v"
"D_8of32<13>v" ":150v"
"D_8of32<12>v" ":151v"
"D_8of32<11>v" ":152v"
"D_8of32<10>v" ":153v"
"D_8of32<9>v" ":154v"
"D_8of32<8>v" ":155v"
"D_8of32<7>v" ":156v"
"D_8of32<6>v" ":157v"
"D_8of32<5>v" ":158v"
"D_8of32<4>v" ":159v"
"D_8of32<3>v" ":160v"
"D_8of32<2>v" ":161v"
"D_8of32<1>v" ":162v"
"D_8of32<0>v" ":163v"
"D_Ack<7>v" ":164v"
"D_Ack<6>v" ":165v"
"D_Ack<5>v" ":166v"
"D_Ack<4>v" ":167v"
"D_Ack<3>v" ":168v"
"D_Ack<2>v" ":169v"
"D_Ack<1>v" ":170v"
"D_Ack<0>v" ":171v"
"Dselv" ":172v"
"I1_1of4<3>v" ":173v"
"I1_1of4<2>v" ":174v"
"I1_1of4<1>v" ":175v"
"I1_1of4<0>v" ":176v"
"I2_1of4<3>v" ":177v"
"I2_1of4<2>v" ":178v"
"I2_1of4<1>v" ":179v"
"I2_1of4<0>v" ":180v"
"I3_1of4<3>v" ":181v"
"I3_1of4<2>v" ":182v"
"I3_1of4<1>v" ":183v"
"I3_1of4<0>v" ":184v"
"I4_1of4<3>v" ":185v"
"I4_1of4<2>v" ":186v"
"I4_1of4<1>v" ":187v"
"I4_1of4<0>v" ":188v"
"I5_1of4<3>v" ":189v"
"I5_1of4<2>v" ":190v"
"I5_1of4<1>v" ":191v"
"I5_1of4<0>v" ":192v"
"I6_1of4<3>v" ":193v"
"I6_1of4<2>v" ":194v"
"I6_1of4<1>v" ":195v"
"I6_1of4<0>v" ":196v"
"I7_1of4<3>v" ":197v"
"I7_1of4<2>v" ":198v"
"I7_1of4<1>v" ":199v"
"I7_1of4<0>v" ":200v"
"I8_1of4<3>v" ":201v"
"I8_1of4<2>v" ":202v"
"I8_1of4<1>v" ":203v"
"I8_1of4<0>v" ":204v"
