HEADER
"PSFversion" "1.00"
"~R0v" "\\~R0v"
"Pchv" "Pchv"
"Rev" "Rev"
"~R1v" "\\~R1v"
"Re2v" "Re2v"
