HEADER
"PSFversion" "1.00"
"TagWEv" "TagWEv"
"WriteToL1Ackv" "WriteToL1Ackv"
"TagWDataSelv" "TagWDataSelv"
"L2DataOutTagAckv" "L2DataOutTagAckv"
"TagWrRegReqv" "TagWrRegReqv"
"WriteToL1Reqv" "WriteToL1Reqv"
"TagWrRegAckv" "TagWrRegAckv"
"L2DataOutReqv" "L2DataOutReqv"
"TagWAckv" "TagWAckv"
