HEADER
"PSFversion" "1.00"
"I1n I0n" "and_1x"
"I2n" "inv_1x"
"dv" ":1v"
"q0v" ":2v"
"q1v" ":3v"
"reqv" ":4v"
