HEADER
"PSFversion" "1.00"
"I3n I5n I7n I6n I8n I9n I11n I10n I18n I14n I16n I17n" "inv_1x"
"I34n I33n I31n I30n I29n I28n I27n I26n I21n I19n I15n I13n I12n I4n I1n I0n I2n" "nand_1x"
"I39n I20n" "nand3_1x"
"I43n I42n I32n I25n I24n I23n I22n" "nand4_1x"
"I37n I36n" "nand9_1x"
"I38n" "nand14_1x"
"I41n I40n" "nand5_1x"
"I44n" "nand6_1x"
"FIFOAckv" ":1v"
"FIFOReqv" ":2v"
"Readv" ":3v"
"ReadFromL1Ackv" ":4v"
"ReadFromL1Reqv" ":5v"
"TagHitv" ":6v"
"TagRAckv" ":7v"
"TagREv" ":8v"
"TagRdRegAckv" ":9v"
"TagRdRegReqv" ":10v"
"Writev" ":11v"
"WriteToL1Ackv" ":12v"
"WriteToL1Reqv" ":13v"
