HEADER
"PSFversion" "1.00"
"I48n" "Compare_DR_PWR"
"I49n" "nor_1x_PWR"
"I57n" "inv_1x_PWR"
"I47n" "Compare2_DR_PWR"
"I56<23>v" "I56_23v"
"I46n I41n I16n I11n I10n I14n I13n I43n I42n I45n I44n" "Compare4_DR_PWR"
"I56<22>v" "I56_22v"
"I56<21>v" "I56_21v"
"I56<20>v" "I56_20v"
"I56<19>v" "I56_19v"
"I56<18>v" "I56_18v"
"I56<17>v" "I56_17v"
"I56<16>v" "I56_16v"
"I56<15>v" "I56_15v"
"I56<14>v" "I56_14v"
"I56<13>v" "I56_13v"
"I56<12>v" "I56_12v"
"I56<11>v" "I56_11v"
"I56<10>v" "I56_10v"
"I56<9>v" "I56_9v"
"I56<8>v" "I56_8v"
"I56<7>v" "I56_7v"
"I56<6>v" "I56_6v"
"I56<5>v" "I56_5v"
"I56<4>v" "I56_4v"
"I56<3>v" "I56_3v"
"I56<2>v" "I56_2v"
"I56<1>v" "I56_1v"
"I56<0>v" "I56_0v"
"I55<23>v" "I55_23v"
"I55<22>v" "I55_22v"
"I55<21>v" "I55_21v"
"I55<20>v" "I55_20v"
"I55<19>v" "I55_19v"
"I55<18>v" "I55_18v"
"I55<17>v" "I55_17v"
"I55<16>v" "I55_16v"
"I55<15>v" "I55_15v"
"I55<14>v" "I55_14v"
"I55<13>v" "I55_13v"
"I55<12>v" "I55_12v"
"I55<11>v" "I55_11v"
"I55<10>v" "I55_10v"
"I55<9>v" "I55_9v"
"I55<8>v" "I55_8v"
"I55<7>v" "I55_7v"
"I55<6>v" "I55_6v"
"I55<5>v" "I55_5v"
"I55<4>v" "I55_4v"
"I55<3>v" "I55_3v"
"I55<2>v" "I55_2v"
"I55<1>v" "I55_1v"
"I55<0>v" "I55_0v"
"I50<23>v" "I50_23v"
"I50<22>v" "I50_22v"
"I50<21>v" "I50_21v"
"I50<20>v" "I50_20v"
"I50<19>v" "I50_19v"
"I50<18>v" "I50_18v"
"I50<17>v" "I50_17v"
"I50<16>v" "I50_16v"
"I50<15>v" "I50_15v"
"I50<14>v" "I50_14v"
"I50<13>v" "I50_13v"
"I50<12>v" "I50_12v"
"I50<11>v" "I50_11v"
"I50<10>v" "I50_10v"
"I50<9>v" "I50_9v"
"I50<8>v" "I50_8v"
"I50<7>v" "I50_7v"
"I50<6>v" "I50_6v"
"I50<5>v" "I50_5v"
"I50<4>v" "I50_4v"
"I50<3>v" "I50_3v"
"I50<2>v" "I50_2v"
"I50<1>v" "I50_1v"
"I50<0>v" "I50_0v"
"I54<23>v" "I54_23v"
"I54<22>v" "I54_22v"
"I54<21>v" "I54_21v"
"I54<20>v" "I54_20v"
"I54<19>v" "I54_19v"
"I54<18>v" "I54_18v"
"I54<17>v" "I54_17v"
"I54<16>v" "I54_16v"
"I54<15>v" "I54_15v"
"I54<14>v" "I54_14v"
"I54<13>v" "I54_13v"
"I54<12>v" "I54_12v"
"I54<11>v" "I54_11v"
"I54<10>v" "I54_10v"
"I54<9>v" "I54_9v"
"I54<8>v" "I54_8v"
"I54<7>v" "I54_7v"
"I54<6>v" "I54_6v"
"I54<5>v" "I54_5v"
"I54<4>v" "I54_4v"
"I54<3>v" "I54_3v"
"I54<2>v" "I54_2v"
"I54<1>v" "I54_1v"
"I54<0>v" "I54_0v"
"I56<23>n I56<22>n I56<21>n I56<20>n I56<19>n I56<18>n I56<17>n I56<16>n I56<15>n I56<14>n I56<13>n I56<12>n I56<11>n I56<10>n I56<9>n I56<8>n I56<7>n I56<6>n I56<5>n I56<4>n I56<3>n I56<2>n I56<1>n I56<0>n I55<23>n I55<22>n I55<21>n I55<20>n I55<19>n I55<18>n I55<17>n I55<16>n I55<15>n I55<14>n I55<13>n I55<12>n I55<11>n I55<10>n I55<9>n I55<8>n I55<7>n I55<6>n I55<5>n I55<4>n I55<3>n I55<2>n I55<1>n I55<0>n I50<23>n I50<22>n I50<21>n I50<20>n I50<19>n I50<18>n I50<17>n I50<16>n I50<15>n I50<14>n I50<13>n I50<12>n I50<11>n I50<10>n I50<9>n I50<8>n I50<7>n I50<6>n I50<5>n I50<4>n I50<3>n I50<2>n I50<1>n I50<0>n I54<23>n I54<22>n I54<21>n I54<20>n I54<19>n I54<18>n I54<17>n I54<16>n I54<15>n I54<14>n I54<13>n I54<12>n I54<11>n I54<10>n I54<9>n I54<8>n I54<7>n I54<6>n I54<5>n I54<4>n I54<3>n I54<2>n I54<1>n I54<0>n" "LevelConverter"
"A0<23>v" ":1v"
"A0<22>v" ":2v"
"A0<21>v" ":3v"
"A0<20>v" ":4v"
"A0<19>v" ":5v"
"A0<18>v" ":6v"
"A0<17>v" ":7v"
"A0<16>v" ":8v"
"A0<15>v" ":9v"
"A0<14>v" ":10v"
"A0<13>v" ":11v"
"A0<12>v" ":12v"
"A0<11>v" ":13v"
"A0<10>v" ":14v"
"A0<9>v" ":15v"
"A0<8>v" ":16v"
"A0<7>v" ":17v"
"A0<6>v" ":18v"
"A0<5>v" ":19v"
"A0<4>v" ":20v"
"A0<3>v" ":21v"
"A0<2>v" ":22v"
"A0<1>v" ":23v"
"A0<0>v" ":24v"
"A1<23>v" ":25v"
"A1<22>v" ":26v"
"A1<21>v" ":27v"
"A1<20>v" ":28v"
"A1<19>v" ":29v"
"A1<18>v" ":30v"
"A1<17>v" ":31v"
"A1<16>v" ":32v"
"A1<15>v" ":33v"
"A1<14>v" ":34v"
"A1<13>v" ":35v"
"A1<12>v" ":36v"
"A1<11>v" ":37v"
"A1<10>v" ":38v"
"A1<9>v" ":39v"
"A1<8>v" ":40v"
"A1<7>v" ":41v"
"A1<6>v" ":42v"
"A1<5>v" ":43v"
"A1<4>v" ":44v"
"A1<3>v" ":45v"
"A1<2>v" ":46v"
"A1<1>v" ":47v"
"A1<0>v" ":48v"
"B0<23>v" ":49v"
"B0<22>v" ":50v"
"B0<21>v" ":51v"
"B0<20>v" ":52v"
"B0<19>v" ":53v"
"B0<18>v" ":54v"
"B0<17>v" ":55v"
"B0<16>v" ":56v"
"B0<15>v" ":57v"
"B0<14>v" ":58v"
"B0<13>v" ":59v"
"B0<12>v" ":60v"
"B0<11>v" ":61v"
"B0<10>v" ":62v"
"B0<9>v" ":63v"
"B0<8>v" ":64v"
"B0<7>v" ":65v"
"B0<6>v" ":66v"
"B0<5>v" ":67v"
"B0<4>v" ":68v"
"B0<3>v" ":69v"
"B0<2>v" ":70v"
"B0<1>v" ":71v"
"B0<0>v" ":72v"
"B1<23>v" ":73v"
"B1<22>v" ":74v"
"B1<21>v" ":75v"
"B1<20>v" ":76v"
"B1<19>v" ":77v"
"B1<18>v" ":78v"
"B1<17>v" ":79v"
"B1<16>v" ":80v"
"B1<15>v" ":81v"
"B1<14>v" ":82v"
"B1<13>v" ":83v"
"B1<12>v" ":84v"
"B1<11>v" ":85v"
"B1<10>v" ":86v"
"B1<9>v" ":87v"
"B1<8>v" ":88v"
"B1<7>v" ":89v"
"B1<6>v" ":90v"
"B1<5>v" ":91v"
"B1<4>v" ":92v"
"B1<3>v" ":93v"
"B1<2>v" ":94v"
"B1<1>v" ":95v"
"B1<0>v" ":96v"
"Eqv" ":97v"
"~Eqv" ":98v"
"vAckv" ":99v"
"VDDLv" ":100v"
"VDDHv" ":101v"
"GNDv" ":102v"
