HEADER
"PSFversion" "1.00"
"VDDLv" "VDDLv"
"GNDv" "GNDv"
"net56v" "net56v"
"net57v" "net57v"
"Inv" "Inv"
"VDDHv" "VDDHv"
"net62v" "net62v"
"Outv" "Outv"
