HEADER
"PSFversion" "1.00"
"__NEXT_FILE__" "Compare24_PWR_Test"
