HEADER
"PSFversion" "1.00"
"vdd!v" "vdd!v"
"vcc!v" "vcc!v"
"gnd!v" "0v"
