HEADER
"PSFversion" "1.00"
"__artInstanceTerminalDelimiter__" "."
"__artHierarchyDelimiter__" "."
"__netlister__" "OSS-based"
"__lib__" "16nm_Tests"
"__cell__" "MC_6TWrite_Test"
"__view__" "config"
"__topcell__" "MC_6TWrite_Test"
