HEADER
"PSFversion" "1.00"
"I15n I14n I13n I12n I11n I10n I9n I8n I7n I6n I5n I4n I3n I2n I1n I0n" "and4_1x"
"1of4_1<3>v" "(FUNCTION or(mappedRoot(\".2[3]@index\") mappedRoot(\".\\\\1of4_1 [3]\")))v"
"1of4_1<3>v" ".\\\\1of4_1 [3]v"
"1of4_1<3>v" ".\\2[3] v"
"1of4_1<2>v" "(FUNCTION or(mappedRoot(\".2[2]@index\") mappedRoot(\".\\\\1of4_1 [2]\")))v"
"1of4_1<2>v" ".\\\\1of4_1 [2]v"
"1of4_1<2>v" ".\\2[2] v"
"1of4_1<1>v" "(FUNCTION or(mappedRoot(\".2[1]@index\") mappedRoot(\".\\\\1of4_1 [1]\")))v"
"1of4_1<1>v" ".\\\\1of4_1 [1]v"
"1of4_1<1>v" ".\\2[1] v"
"1of4_1<0>v" "(FUNCTION or(mappedRoot(\".2[0]@index\") mappedRoot(\".\\\\1of4_1 [0]\")))v"
"1of4_1<0>v" ".\\\\1of4_1 [0]v"
"1of4_1<0>v" ".\\2[0] v"
"1of4_2<3>v" "(FUNCTION or(mappedRoot(\".3[3]@index\") mappedRoot(\".\\\\1of4_2 [3]\")))v"
"1of4_2<3>v" ".\\\\1of4_2 [3]v"
"1of4_2<3>v" ".\\3[3] v"
"1of4_2<2>v" "(FUNCTION or(mappedRoot(\".3[2]@index\") mappedRoot(\".\\\\1of4_2 [2]\")))v"
"1of4_2<2>v" ".\\\\1of4_2 [2]v"
"1of4_2<2>v" ".\\3[2] v"
"1of4_2<1>v" "(FUNCTION or(mappedRoot(\".3[1]@index\") mappedRoot(\".\\\\1of4_2 [1]\")))v"
"1of4_2<1>v" ".\\\\1of4_2 [1]v"
"1of4_2<1>v" ".\\3[1] v"
"1of4_2<0>v" "(FUNCTION or(mappedRoot(\".3[0]@index\") mappedRoot(\".\\\\1of4_2 [0]\")))v"
"1of4_2<0>v" ".\\\\1of4_2 [0]v"
"1of4_2<0>v" ".\\3[0] v"
"EnOutv" "(FUNCTION or(mappedRoot(\".5@index\") mappedRoot(\".EnOut\")))v"
"EnOutv" ".EnOutv"
"EnOutv" ".\\5 v"
"Env" "(FUNCTION or(mappedRoot(\".4@index\") mappedRoot(\".En\")))v"
"Env" ".Env"
"Env" ".\\4 v"
"A<15>v" "(FUNCTION or(mappedRoot(\".1[15]@index\") mappedRoot(\".A[15]\")))v"
"A<15>v" ".A[15]v"
"A<15>v" ".\\1[15] v"
"A<14>v" "(FUNCTION or(mappedRoot(\".1[14]@index\") mappedRoot(\".A[14]\")))v"
"A<14>v" ".A[14]v"
"A<14>v" ".\\1[14] v"
"A<13>v" "(FUNCTION or(mappedRoot(\".1[13]@index\") mappedRoot(\".A[13]\")))v"
"A<13>v" ".A[13]v"
"A<13>v" ".\\1[13] v"
"A<12>v" "(FUNCTION or(mappedRoot(\".1[12]@index\") mappedRoot(\".A[12]\")))v"
"A<12>v" ".A[12]v"
"A<12>v" ".\\1[12] v"
"A<11>v" "(FUNCTION or(mappedRoot(\".1[11]@index\") mappedRoot(\".A[11]\")))v"
"A<11>v" ".A[11]v"
"A<11>v" ".\\1[11] v"
"A<10>v" "(FUNCTION or(mappedRoot(\".1[10]@index\") mappedRoot(\".A[10]\")))v"
"A<10>v" ".A[10]v"
"A<10>v" ".\\1[10] v"
"A<9>v" "(FUNCTION or(mappedRoot(\".1[9]@index\") mappedRoot(\".A[9]\")))v"
"A<9>v" ".A[9]v"
"A<9>v" ".\\1[9] v"
"A<8>v" "(FUNCTION or(mappedRoot(\".1[8]@index\") mappedRoot(\".A[8]\")))v"
"A<8>v" ".A[8]v"
"A<8>v" ".\\1[8] v"
"A<7>v" "(FUNCTION or(mappedRoot(\".1[7]@index\") mappedRoot(\".A[7]\")))v"
"A<7>v" ".A[7]v"
"A<7>v" ".\\1[7] v"
"A<6>v" "(FUNCTION or(mappedRoot(\".1[6]@index\") mappedRoot(\".A[6]\")))v"
"A<6>v" ".A[6]v"
"A<6>v" ".\\1[6] v"
"A<5>v" "(FUNCTION or(mappedRoot(\".1[5]@index\") mappedRoot(\".A[5]\")))v"
"A<5>v" ".A[5]v"
"A<5>v" ".\\1[5] v"
"A<4>v" "(FUNCTION or(mappedRoot(\".1[4]@index\") mappedRoot(\".A[4]\")))v"
"A<4>v" ".A[4]v"
"A<4>v" ".\\1[4] v"
"A<3>v" "(FUNCTION or(mappedRoot(\".1[3]@index\") mappedRoot(\".A[3]\")))v"
"A<3>v" ".A[3]v"
"A<3>v" ".\\1[3] v"
"A<2>v" "(FUNCTION or(mappedRoot(\".1[2]@index\") mappedRoot(\".A[2]\")))v"
"A<2>v" ".A[2]v"
"A<2>v" ".\\1[2] v"
"A<1>v" "(FUNCTION or(mappedRoot(\".1[1]@index\") mappedRoot(\".A[1]\")))v"
"A<1>v" ".A[1]v"
"A<1>v" ".\\1[1] v"
"A<0>v" "(FUNCTION or(mappedRoot(\".1[0]@index\") mappedRoot(\".A[0]\")))v"
"A<0>v" ".A[0]v"
"A<0>v" ".\\1[0] v"
