HEADER
"PSFversion" "1.00"
"I1n I0n" "_sub78"
"A<31>v" ":1v"
"A<30>v" ":2v"
"A<29>v" ":3v"
"A<28>v" ":4v"
"A<27>v" ":5v"
"A<26>v" ":6v"
"A<25>v" ":7v"
"A<24>v" ":8v"
"A<23>v" ":9v"
"A<22>v" ":10v"
"A<21>v" ":11v"
"A<20>v" ":12v"
"A<19>v" ":13v"
"A<18>v" ":14v"
"A<17>v" ":15v"
"A<16>v" ":16v"
"A<15>v" ":17v"
"A<14>v" ":18v"
"A<13>v" ":19v"
"A<12>v" ":20v"
"A<11>v" ":21v"
"A<10>v" ":22v"
"A<9>v" ":23v"
"A<8>v" ":24v"
"A<7>v" ":25v"
"A<6>v" ":26v"
"A<5>v" ":27v"
"A<4>v" ":28v"
"A<3>v" ":29v"
"A<2>v" ":30v"
"A<1>v" ":31v"
"A<0>v" ":32v"
"A_Ack<7>v" ":33v"
"A_Ack<6>v" ":34v"
"A_Ack<5>v" ":35v"
"A_Ack<4>v" ":36v"
"A_Ack<3>v" ":37v"
"A_Ack<2>v" ":38v"
"A_Ack<1>v" ":39v"
"A_Ack<0>v" ":40v"
"Ack<7>v" ":41v"
"Ack<6>v" ":42v"
"Ack<5>v" ":43v"
"Ack<4>v" ":44v"
"Ack<3>v" ":45v"
"Ack<2>v" ":46v"
"Ack<1>v" ":47v"
"Ack<0>v" ":48v"
"Aselv" ":49v"
"B<31>v" ":50v"
"B<30>v" ":51v"
"B<29>v" ":52v"
"B<28>v" ":53v"
"B<27>v" ":54v"
"B<26>v" ":55v"
"B<25>v" ":56v"
"B<24>v" ":57v"
"B<23>v" ":58v"
"B<22>v" ":59v"
"B<21>v" ":60v"
"B<20>v" ":61v"
"B<19>v" ":62v"
"B<18>v" ":63v"
"B<17>v" ":64v"
"B<16>v" ":65v"
"B<15>v" ":66v"
"B<14>v" ":67v"
"B<13>v" ":68v"
"B<12>v" ":69v"
"B<11>v" ":70v"
"B<10>v" ":71v"
"B<9>v" ":72v"
"B<8>v" ":73v"
"B<7>v" ":74v"
"B<6>v" ":75v"
"B<5>v" ":76v"
"B<4>v" ":77v"
"B<3>v" ":78v"
"B<2>v" ":79v"
"B<1>v" ":80v"
"B<0>v" ":81v"
"B_Ack<7>v" ":82v"
"B_Ack<6>v" ":83v"
"B_Ack<5>v" ":84v"
"B_Ack<4>v" ":85v"
"B_Ack<3>v" ":86v"
"B_Ack<2>v" ":87v"
"B_Ack<1>v" ":88v"
"B_Ack<0>v" ":89v"
"Bselv" ":90v"
"C<31>v" ":91v"
"C<30>v" ":92v"
"C<29>v" ":93v"
"C<28>v" ":94v"
"C<27>v" ":95v"
"C<26>v" ":96v"
"C<25>v" ":97v"
"C<24>v" ":98v"
"C<23>v" ":99v"
"C<22>v" ":100v"
"C<21>v" ":101v"
"C<20>v" ":102v"
"C<19>v" ":103v"
"C<18>v" ":104v"
"C<17>v" ":105v"
"C<16>v" ":106v"
"C<15>v" ":107v"
"C<14>v" ":108v"
"C<13>v" ":109v"
"C<12>v" ":110v"
"C<11>v" ":111v"
"C<10>v" ":112v"
"C<9>v" ":113v"
"C<8>v" ":114v"
"C<7>v" ":115v"
"C<6>v" ":116v"
"C<5>v" ":117v"
"C<4>v" ":118v"
"C<3>v" ":119v"
"C<2>v" ":120v"
"C<1>v" ":121v"
"C<0>v" ":122v"
"C_Ack<7>v" ":123v"
"C_Ack<6>v" ":124v"
"C_Ack<5>v" ":125v"
"C_Ack<4>v" ":126v"
"C_Ack<3>v" ":127v"
"C_Ack<2>v" ":128v"
"C_Ack<1>v" ":129v"
"C_Ack<0>v" ":130v"
"Cselv" ":131v"
"D<31>v" ":132v"
"D<30>v" ":133v"
"D<29>v" ":134v"
"D<28>v" ":135v"
"D<27>v" ":136v"
"D<26>v" ":137v"
"D<25>v" ":138v"
"D<24>v" ":139v"
"D<23>v" ":140v"
"D<22>v" ":141v"
"D<21>v" ":142v"
"D<20>v" ":143v"
"D<19>v" ":144v"
"D<18>v" ":145v"
"D<17>v" ":146v"
"D<16>v" ":147v"
"D<15>v" ":148v"
"D<14>v" ":149v"
"D<13>v" ":150v"
"D<12>v" ":151v"
"D<11>v" ":152v"
"D<10>v" ":153v"
"D<9>v" ":154v"
"D<8>v" ":155v"
"D<7>v" ":156v"
"D<6>v" ":157v"
"D<5>v" ":158v"
"D<4>v" ":159v"
"D<3>v" ":160v"
"D<2>v" ":161v"
"D<1>v" ":162v"
"D<0>v" ":163v"
"D_Ack<7>v" ":164v"
"D_Ack<6>v" ":165v"
"D_Ack<5>v" ":166v"
"D_Ack<4>v" ":167v"
"D_Ack<3>v" ":168v"
"D_Ack<2>v" ":169v"
"D_Ack<1>v" ":170v"
"D_Ack<0>v" ":171v"
"Dselv" ":172v"
"Out1_1of4<3>v" ":173v"
"Out1_1of4<2>v" ":174v"
"Out1_1of4<1>v" ":175v"
"Out1_1of4<0>v" ":176v"
"Out2_1of4<3>v" ":177v"
"Out2_1of4<2>v" ":178v"
"Out2_1of4<1>v" ":179v"
"Out2_1of4<0>v" ":180v"
"Out3_1of4<3>v" ":181v"
"Out3_1of4<2>v" ":182v"
"Out3_1of4<1>v" ":183v"
"Out3_1of4<0>v" ":184v"
"Out4_1of4<3>v" ":185v"
"Out4_1of4<2>v" ":186v"
"Out4_1of4<1>v" ":187v"
"Out4_1of4<0>v" ":188v"
"Out5_1of4<3>v" ":189v"
"Out5_1of4<2>v" ":190v"
"Out5_1of4<1>v" ":191v"
"Out5_1of4<0>v" ":192v"
"Out6_1of4<3>v" ":193v"
"Out6_1of4<2>v" ":194v"
"Out6_1of4<1>v" ":195v"
"Out6_1of4<0>v" ":196v"
"Out7_1of4<3>v" ":197v"
"Out7_1of4<2>v" ":198v"
"Out7_1of4<1>v" ":199v"
"Out7_1of4<0>v" ":200v"
"Out8_1of4<3>v" ":201v"
"Out8_1of4<2>v" ":202v"
"Out8_1of4<1>v" ":203v"
"Out8_1of4<0>v" ":204v"
