HEADER
"PSFversion" "1.00"
"Out1_1of4<7>v" "Out1_1of4_7v"
"Out1_1of4<6>v" "Out1_1of4_6v"
"Out1_1of4<5>v" "Out1_1of4_5v"
"Out1_1of4<4>v" "Out1_1of4_4v"
"Out1_1of4<3>v" "Out1_1of4_3v"
"Out1_1of4<2>v" "Out1_1of4_2v"
"Out1_1of4<1>v" "Out1_1of4_1v"
"Out1_1of4<0>v" "Out1_1of4_0v"
"In2_4of16<11>v" "In2_4of16_11v"
"In2_4of16<10>v" "In2_4of16_10v"
"In2_4of16<9>v" "In2_4of16_9v"
"In2_4of16<8>v" "In2_4of16_8v"
"In2_4of16<7>v" "In2_4of16_7v"
"In2_4of16<6>v" "In2_4of16_6v"
"In2_4of16<5>v" "In2_4of16_5v"
"In2_4of16<4>v" "In2_4of16_4v"
"Out2_1of4<15>v" "Out2_1of4_15v"
"Out2_1of4<14>v" "Out2_1of4_14v"
"Out2_1of4<13>v" "Out2_1of4_13v"
"Out2_1of4<12>v" "Out2_1of4_12v"
"Out2_1of4<11>v" "Out2_1of4_11v"
"Out2_1of4<10>v" "Out2_1of4_10v"
"Out2_1of4<9>v" "Out2_1of4_9v"
"Out2_1of4<8>v" "Out2_1of4_8v"
"In2_4of16<3>v" "In2_4of16_3v"
"In2_4of16<2>v" "In2_4of16_2v"
"In2_4of16<1>v" "In2_4of16_1v"
"In2_4of16<0>v" "In2_4of16_0v"
"In_4of16<11>v" "In_4of16_11v"
"In_4of16<10>v" "In_4of16_10v"
"In_4of16<9>v" "In_4of16_9v"
"In_4of16<8>v" "In_4of16_8v"
"In_4of16<7>v" "In_4of16_7v"
"In_4of16<6>v" "In_4of16_6v"
"In_4of16<5>v" "In_4of16_5v"
"In_4of16<4>v" "In_4of16_4v"
"In_4of16<3>v" "In_4of16_3v"
"In_4of16<2>v" "In_4of16_2v"
"In_4of16<1>v" "In_4of16_1v"
"In_4of16<0>v" "In_4of16_0v"
"Out1_1of4<15>v" "Out1_1of4_15v"
"Out1_1of4<14>v" "Out1_1of4_14v"
"Out1_1of4<13>v" "Out1_1of4_13v"
"Out1_1of4<12>v" "Out1_1of4_12v"
"Out1_1of4<11>v" "Out1_1of4_11v"
"Out1_1of4<10>v" "Out1_1of4_10v"
"Out1_1of4<9>v" "Out1_1of4_9v"
"Out1_1of4<8>v" "Out1_1of4_8v"
"In_4of16<15>v" "In_4of16_15v"
"In_4of16<14>v" "In_4of16_14v"
"In_4of16<13>v" "In_4of16_13v"
"In_4of16<12>v" "In_4of16_12v"
"In2_4of16<15>v" "In2_4of16_15v"
"In2_4of16<14>v" "In2_4of16_14v"
"In2_4of16<13>v" "In2_4of16_13v"
"In2_4of16<12>v" "In2_4of16_12v"
"Out2_1of4<7>v" "Out2_1of4_7v"
"Out2_1of4<6>v" "Out2_1of4_6v"
"Out2_1of4<5>v" "Out2_1of4_5v"
"Out2_1of4<4>v" "Out2_1of4_4v"
"Out2_1of4<3>v" "Out2_1of4_3v"
"Out2_1of4<2>v" "Out2_1of4_2v"
"Out2_1of4<1>v" "Out2_1of4_1v"
"Out2_1of4<0>v" "Out2_1of4_0v"
"In_Ack<3>v" "In_Ack_3v"
"In_Ack<2>v" "In_Ack_2v"
"In_Ack<1>v" "In_Ack_1v"
"In_Ack<0>v" "In_Ack_0v"
"In_Ack<7>v" "In_Ack_7v"
"In_Ack<6>v" "In_Ack_6v"
"In_Ack<5>v" "In_Ack_5v"
"In_Ack<4>v" "In_Ack_4v"
"Ack<7>v" "Ack_7v"
"Ack<6>v" "Ack_6v"
"Ack<5>v" "Ack_5v"
"Ack<4>v" "Ack_4v"
"Ack<3>v" "Ack_3v"
"Ack<2>v" "Ack_2v"
"Ack<1>v" "Ack_1v"
"Ack<0>v" "Ack_0v"
