HEADER
"PSFversion" "1.00"
"Out_4of16<3>v" "Out_4of16_3v"
"Out_4of16<2>v" "Out_4of16_2v"
"Out_4of16<1>v" "Out_4of16_1v"
"Out_4of16<0>v" "Out_4of16_0v"
"Out_4of16<7>v" "Out_4of16_7v"
"Out_4of16<6>v" "Out_4of16_6v"
"Out_4of16<5>v" "Out_4of16_5v"
"Out_4of16<4>v" "Out_4of16_4v"
"In_4of16<15>v" "In_4of16_15v"
"In_4of16<14>v" "In_4of16_14v"
"In_4of16<13>v" "In_4of16_13v"
"In_4of16<12>v" "In_4of16_12v"
"In_4of16<11>v" "In_4of16_11v"
"In_4of16<10>v" "In_4of16_10v"
"In_4of16<9>v" "In_4of16_9v"
"In_4of16<8>v" "In_4of16_8v"
"In_4of16<7>v" "In_4of16_7v"
"In_4of16<6>v" "In_4of16_6v"
"In_4of16<5>v" "In_4of16_5v"
"In_4of16<4>v" "In_4of16_4v"
"In_4of16<3>v" "In_4of16_3v"
"In_4of16<2>v" "In_4of16_2v"
"In_4of16<1>v" "In_4of16_1v"
"In_4of16<0>v" "In_4of16_0v"
"In_Ack<3>v" "In_Ack_3v"
"In_Ack<2>v" "In_Ack_2v"
"In_Ack<1>v" "In_Ack_1v"
"In_Ack<0>v" "In_Ack_0v"
"Out_4of16<11>v" "Out_4of16_11v"
"Out_4of16<10>v" "Out_4of16_10v"
"Out_4of16<9>v" "Out_4of16_9v"
"Out_4of16<8>v" "Out_4of16_8v"
"Out_4of16<15>v" "Out_4of16_15v"
"Out_4of16<14>v" "Out_4of16_14v"
"Out_4of16<13>v" "Out_4of16_13v"
"Out_4of16<12>v" "Out_4of16_12v"
"Ack<0>v" "Ack_0v"
"Ack<1>v" "Ack_1v"
"Ack<2>v" "Ack_2v"
"Ack<3>v" "Ack_3v"
