HEADER
"PSFversion" "1.00"
"n<2>v" "n_2v"
"n<1>v" "n_1v"
"n<0>v" "n_0v"
"in<3>v" "in_3v"
"in<2>v" "in_2v"
"in<1>v" "in_1v"
"out<3>v" "out_3v"
"out<2>v" "out_2v"
"out<1>v" "out_1v"
"out<0>v" "out_0v"
"in<0>v" "in_0v"
"xo<3>v" "xo_3v"
"xo<0>v" "xo_0v"
"xo<2>v" "xo_2v"
"xo<1>v" "xo_1v"
"ninav" "ninav"
"nx<3>v" "nx_3v"
"nx<2>v" "nx_2v"
"nx<1>v" "nx_1v"
"nx<0>v" "nx_0v"
"xav" "xav"
"nxav" "nxav"
"n<3>v" "n_3v"
"ackv" "ackv"
