HEADER
"PSFversion" "1.00"
"I31n I26n I27n I28n I29n I30n I13n I12n" "nand4_1x"
"I11n I10n I9n I8n" "TH22"
"I35n I34n I33n I32n I25n I24n I23n I22n I7n I6n I5n I4n I3n I2n I1n I0n" "_sub111"
"I21n I20n I19n I18n" "inv_1x"
"a<3>v" ":1v"
"a<2>v" ":2v"
"a<1>v" ":3v"
"a<0>v" ":4v"
"a_ackv" ":5v"
"ackv" ":6v"
"aselv" ":7v"
"b<3>v" ":8v"
"b<2>v" ":9v"
"b<1>v" ":10v"
"b<0>v" ":11v"
"b_ackv" ":12v"
"bselv" ":13v"
"c<3>v" ":14v"
"c<2>v" ":15v"
"c<1>v" ":16v"
"c<0>v" ":17v"
"c_ackv" ":18v"
"cselv" ":19v"
"d<3>v" ":20v"
"d<2>v" ":21v"
"d<1>v" ":22v"
"d<0>v" ":23v"
"d_ackv" ":24v"
"dselv" ":25v"
"out<3>v" ":26v"
"out<2>v" ":27v"
"out<1>v" ":28v"
"out<0>v" ":29v"
