HEADER
"PSFversion" "1.00"
"net064v" "net064v"
"net56<0>v" "net56_0v"
"net56<1>v" "net56_1v"
"net56<2>v" "net56_2v"
"net56<3>v" "net56_3v"
"net56<4>v" "net56_4v"
"net56<5>v" "net56_5v"
"net56<6>v" "net56_6v"
"net56<7>v" "net56_7v"
"net56<8>v" "net56_8v"
"net56<9>v" "net56_9v"
"net56<10>v" "net56_10v"
"net56<11>v" "net56_11v"
"net56<12>v" "net56_12v"
"net56<13>v" "net56_13v"
"net56<14>v" "net56_14v"
"net56<15>v" "net56_15v"
"net56<16>v" "net56_16v"
"net56<17>v" "net56_17v"
"net56<18>v" "net56_18v"
"net56<19>v" "net56_19v"
"WdAck<7>v" "WdAck_7v"
"WdAck<6>v" "WdAck_6v"
"WdAck<5>v" "WdAck_5v"
"WdAck<4>v" "WdAck_4v"
"WdAck<3>v" "WdAck_3v"
"WdAck<2>v" "WdAck_2v"
"WdAck<1>v" "WdAck_1v"
"WdAck<0>v" "WdAck_0v"
"net46<0>v" "net46_0v"
"net46<1>v" "net46_1v"
"net37<0>v" "net37_0v"
"net37<1>v" "net37_1v"
"net37<2>v" "net37_2v"
"net37<3>v" "net37_3v"
"net37<4>v" "net37_4v"
"net0108<0>v" "net0108_0v"
"net0108<1>v" "net0108_1v"
"net0108<2>v" "net0108_2v"
"net0108<3>v" "net0108_3v"
"net0108<4>v" "net0108_4v"
"net0108<5>v" "net0108_5v"
"net0108<6>v" "net0108_6v"
"net0108<7>v" "net0108_7v"
"net0108<8>v" "net0108_8v"
"net0108<9>v" "net0108_9v"
"net0108<10>v" "net0108_10v"
"net0108<11>v" "net0108_11v"
"net0108<12>v" "net0108_12v"
"net0108<13>v" "net0108_13v"
"net0108<14>v" "net0108_14v"
"net0108<15>v" "net0108_15v"
"net0108<16>v" "net0108_16v"
"net0108<17>v" "net0108_17v"
"net0108<18>v" "net0108_18v"
"net0108<19>v" "net0108_19v"
"net0108<20>v" "net0108_20v"
"net0108<21>v" "net0108_21v"
"net0108<22>v" "net0108_22v"
"net0108<23>v" "net0108_23v"
"net0108<24>v" "net0108_24v"
"net0108<25>v" "net0108_25v"
"net0108<26>v" "net0108_26v"
"net0108<27>v" "net0108_27v"
"net0108<28>v" "net0108_28v"
"net0108<29>v" "net0108_29v"
"net0108<30>v" "net0108_30v"
"net0108<31>v" "net0108_31v"
"Rdata<31>v" "Rdata_31v"
"Rdata<30>v" "Rdata_30v"
"Rdata<29>v" "Rdata_29v"
"Rdata<28>v" "Rdata_28v"
"Rdata<27>v" "Rdata_27v"
"Rdata<26>v" "Rdata_26v"
"Rdata<25>v" "Rdata_25v"
"Rdata<24>v" "Rdata_24v"
"Rdata<23>v" "Rdata_23v"
"Rdata<22>v" "Rdata_22v"
"Rdata<21>v" "Rdata_21v"
"Rdata<20>v" "Rdata_20v"
"Rdata<19>v" "Rdata_19v"
"Rdata<18>v" "Rdata_18v"
"Rdata<17>v" "Rdata_17v"
"Rdata<16>v" "Rdata_16v"
"Rdata<15>v" "Rdata_15v"
"Rdata<14>v" "Rdata_14v"
"Rdata<13>v" "Rdata_13v"
"Rdata<12>v" "Rdata_12v"
"Rdata<11>v" "Rdata_11v"
"Rdata<10>v" "Rdata_10v"
"Rdata<9>v" "Rdata_9v"
"Rdata<8>v" "Rdata_8v"
"Rdata<7>v" "Rdata_7v"
"Rdata<6>v" "Rdata_6v"
"Rdata<5>v" "Rdata_5v"
"Rdata<4>v" "Rdata_4v"
"Rdata<3>v" "Rdata_3v"
"Rdata<2>v" "Rdata_2v"
"Rdata<1>v" "Rdata_1v"
"Rdata<0>v" "Rdata_0v"
"net0107<0>v" "net0107_0v"
"net0107<1>v" "net0107_1v"
"net0107<2>v" "net0107_2v"
"net0107<3>v" "net0107_3v"
"net0107<4>v" "net0107_4v"
"net0107<5>v" "net0107_5v"
"net0107<6>v" "net0107_6v"
"net0107<7>v" "net0107_7v"
"ReadAckv" "ReadAckv"
"Write<0>v" "Write_0v"
"net20v" "net20v"
"Rd<11>v" "Rd_11v"
"Rd<10>v" "Rd_10v"
"Rd<9>v" "Rd_9v"
"Rd<8>v" "Rd_8v"
"Rd<27>v" "Rd_27v"
"Rd<26>v" "Rd_26v"
"Rd<25>v" "Rd_25v"
"Rd<24>v" "Rd_24v"
"Rd<15>v" "Rd_15v"
"Rd<14>v" "Rd_14v"
"Rd<13>v" "Rd_13v"
"Rd<12>v" "Rd_12v"
"net0109<0>v" "net0109_0v"
"net0109<1>v" "net0109_1v"
"net0109<2>v" "net0109_2v"
"net0109<3>v" "net0109_3v"
"net0109<4>v" "net0109_4v"
"net0109<5>v" "net0109_5v"
"net0109<6>v" "net0109_6v"
"net0109<7>v" "net0109_7v"
"net0109<8>v" "net0109_8v"
"net0109<9>v" "net0109_9v"
"net0109<10>v" "net0109_10v"
"net0109<11>v" "net0109_11v"
"net0109<12>v" "net0109_12v"
"net0109<13>v" "net0109_13v"
"net0109<14>v" "net0109_14v"
"net0109<15>v" "net0109_15v"
"net0109<16>v" "net0109_16v"
"net0109<17>v" "net0109_17v"
"net0109<18>v" "net0109_18v"
"net0109<19>v" "net0109_19v"
"net0109<20>v" "net0109_20v"
"net0109<21>v" "net0109_21v"
"net0109<22>v" "net0109_22v"
"net0109<23>v" "net0109_23v"
"net0109<24>v" "net0109_24v"
"net0109<25>v" "net0109_25v"
"net0109<26>v" "net0109_26v"
"net0109<27>v" "net0109_27v"
"net0109<28>v" "net0109_28v"
"net0109<29>v" "net0109_29v"
"net0109<30>v" "net0109_30v"
"net0109<31>v" "net0109_31v"
"net0189<0>v" "net0189_0v"
"net0189<1>v" "net0189_1v"
"net0189<2>v" "net0189_2v"
"net0189<3>v" "net0189_3v"
"net0189<4>v" "net0189_4v"
"net0189<5>v" "net0189_5v"
"Wdata<23>v" "Wdata_23v"
"Wdata<22>v" "Wdata_22v"
"Wdata<21>v" "Wdata_21v"
"Wdata<20>v" "Wdata_20v"
"Write<1>v" "Write_1v"
"RdBank1<31>v" "RdBank1_31v"
"RdBank1<30>v" "RdBank1_30v"
"RdBank1<29>v" "RdBank1_29v"
"RdBank1<28>v" "RdBank1_28v"
"RdBank1<27>v" "RdBank1_27v"
"RdBank1<26>v" "RdBank1_26v"
"RdBank1<25>v" "RdBank1_25v"
"RdBank1<24>v" "RdBank1_24v"
"RdBank1<23>v" "RdBank1_23v"
"RdBank1<22>v" "RdBank1_22v"
"RdBank1<21>v" "RdBank1_21v"
"RdBank1<20>v" "RdBank1_20v"
"RdBank1<19>v" "RdBank1_19v"
"RdBank1<18>v" "RdBank1_18v"
"RdBank1<17>v" "RdBank1_17v"
"RdBank1<16>v" "RdBank1_16v"
"RdBank1<15>v" "RdBank1_15v"
"RdBank1<14>v" "RdBank1_14v"
"RdBank1<13>v" "RdBank1_13v"
"RdBank1<12>v" "RdBank1_12v"
"RdBank1<11>v" "RdBank1_11v"
"RdBank1<10>v" "RdBank1_10v"
"RdBank1<9>v" "RdBank1_9v"
"RdBank1<8>v" "RdBank1_8v"
"RdBank1<7>v" "RdBank1_7v"
"RdBank1<6>v" "RdBank1_6v"
"RdBank1<5>v" "RdBank1_5v"
"RdBank1<4>v" "RdBank1_4v"
"RdBank1<3>v" "RdBank1_3v"
"RdBank1<2>v" "RdBank1_2v"
"RdBank1<1>v" "RdBank1_1v"
"RdBank1<0>v" "RdBank1_0v"
"net0196<0>v" "net0196_0v"
"net0196<1>v" "net0196_1v"
"Wd<15>v" "Wd_15v"
"Wd<14>v" "Wd_14v"
"Wd<13>v" "Wd_13v"
"Wd<12>v" "Wd_12v"
"net0212<0>v" "net0212_0v"
"net0212<1>v" "net0212_1v"
"net0212<2>v" "net0212_2v"
"net0212<3>v" "net0212_3v"
"net0212<4>v" "net0212_4v"
"net0212<5>v" "net0212_5v"
"net0212<6>v" "net0212_6v"
"net0212<7>v" "net0212_7v"
"net0212<8>v" "net0212_8v"
"net0212<9>v" "net0212_9v"
"net0212<10>v" "net0212_10v"
"net0212<11>v" "net0212_11v"
"net0212<12>v" "net0212_12v"
"net0212<13>v" "net0212_13v"
"net0212<14>v" "net0212_14v"
"net0212<15>v" "net0212_15v"
"net0212<16>v" "net0212_16v"
"net0212<17>v" "net0212_17v"
"net0212<18>v" "net0212_18v"
"net0212<19>v" "net0212_19v"
"net0212<20>v" "net0212_20v"
"net0212<21>v" "net0212_21v"
"net0212<22>v" "net0212_22v"
"net0212<23>v" "net0212_23v"
"net0104<0>v" "net0104_0v"
"net0104<1>v" "net0104_1v"
"net0104<2>v" "net0104_2v"
"net0104<3>v" "net0104_3v"
"net0104<4>v" "net0104_4v"
"net0104<5>v" "net0104_5v"
"net0104<6>v" "net0104_6v"
"net0104<7>v" "net0104_7v"
"net021v" "net021v"
"net19v" "net19v"
"Read<0>v" "Read_0v"
"net017v" "net017v"
"Wd<23>v" "Wd_23v"
"Wd<22>v" "Wd_22v"
"Wd<21>v" "Wd_21v"
"Wd<20>v" "Wd_20v"
"net0200<0>v" "net0200_0v"
"net0200<1>v" "net0200_1v"
"net0200<2>v" "net0200_2v"
"net0200<3>v" "net0200_3v"
"net0200<4>v" "net0200_4v"
"net0200<5>v" "net0200_5v"
"net0200<6>v" "net0200_6v"
"net0200<7>v" "net0200_7v"
"net0200<8>v" "net0200_8v"
"net0200<9>v" "net0200_9v"
"net0200<10>v" "net0200_10v"
"net0200<11>v" "net0200_11v"
"net0200<12>v" "net0200_12v"
"net0200<13>v" "net0200_13v"
"net0200<14>v" "net0200_14v"
"net0200<15>v" "net0200_15v"
"net0200<16>v" "net0200_16v"
"net0200<17>v" "net0200_17v"
"net0200<18>v" "net0200_18v"
"net0200<19>v" "net0200_19v"
"Wd<31>v" "Wd_31v"
"Wd<30>v" "Wd_30v"
"Wd<29>v" "Wd_29v"
"Wd<28>v" "Wd_28v"
"Bank1WAck<7>v" "Bank1WAck_7v"
"Bank1WAck<6>v" "Bank1WAck_6v"
"Bank1WAck<5>v" "Bank1WAck_5v"
"Bank1WAck<4>v" "Bank1WAck_4v"
"Bank1WAck<3>v" "Bank1WAck_3v"
"Bank1WAck<2>v" "Bank1WAck_2v"
"Bank1WAck<1>v" "Bank1WAck_1v"
"Bank1WAck<0>v" "Bank1WAck_0v"
"Wd<3>v" "Wd_3v"
"Wd<2>v" "Wd_2v"
"Wd<1>v" "Wd_1v"
"Wd<0>v" "Wd_0v"
"net43<0>v" "net43_0v"
"net43<1>v" "net43_1v"
"net43<2>v" "net43_2v"
"net43<3>v" "net43_3v"
"net43<4>v" "net43_4v"
"net0205v" "net0205v"
"net0137<0>v" "net0137_0v"
"net0137<1>v" "net0137_1v"
"net0137<2>v" "net0137_2v"
"net0137<3>v" "net0137_3v"
"net0137<4>v" "net0137_4v"
"net0204<0>v" "net0204_0v"
"net0204<1>v" "net0204_1v"
"net0204<2>v" "net0204_2v"
"net0204<3>v" "net0204_3v"
"net0204<4>v" "net0204_4v"
"net18v" "net18v"
"net060v" "net060v"
"net36<0>v" "net36_0v"
"net36<1>v" "net36_1v"
"net36<2>v" "net36_2v"
"net36<3>v" "net36_3v"
"net36<4>v" "net36_4v"
"net36<5>v" "net36_5v"
"net36<6>v" "net36_6v"
"net36<7>v" "net36_7v"
"net36<8>v" "net36_8v"
"net36<9>v" "net36_9v"
"net36<10>v" "net36_10v"
"net36<11>v" "net36_11v"
"net36<12>v" "net36_12v"
"net36<13>v" "net36_13v"
"net36<14>v" "net36_14v"
"net36<15>v" "net36_15v"
"net36<16>v" "net36_16v"
"net36<17>v" "net36_17v"
"net36<18>v" "net36_18v"
"net36<19>v" "net36_19v"
"RdAck<7>v" "RdAck_7v"
"RdAck<6>v" "RdAck_6v"
"RdAck<5>v" "RdAck_5v"
"RdAck<4>v" "RdAck_4v"
"RdAck<3>v" "RdAck_3v"
"RdAck<2>v" "RdAck_2v"
"RdAck<1>v" "RdAck_1v"
"RdAck<0>v" "RdAck_0v"
"Wdata<15>v" "Wdata_15v"
"Wdata<14>v" "Wdata_14v"
"Wdata<13>v" "Wdata_13v"
"Wdata<12>v" "Wdata_12v"
"net0188<0>v" "net0188_0v"
"net0188<1>v" "net0188_1v"
"net0188<2>v" "net0188_2v"
"net0188<3>v" "net0188_3v"
"net0188<4>v" "net0188_4v"
"net0188<5>v" "net0188_5v"
"net52<0>v" "net52_0v"
"net52<1>v" "net52_1v"
"net52<2>v" "net52_2v"
"net52<3>v" "net52_3v"
"net52<4>v" "net52_4v"
"net019v" "net019v"
"WdBank1<31>v" "WdBank1_31v"
"WdBank1<30>v" "WdBank1_30v"
"WdBank1<29>v" "WdBank1_29v"
"WdBank1<28>v" "WdBank1_28v"
"WdBank1<27>v" "WdBank1_27v"
"WdBank1<26>v" "WdBank1_26v"
"WdBank1<25>v" "WdBank1_25v"
"WdBank1<24>v" "WdBank1_24v"
"WdBank1<23>v" "WdBank1_23v"
"WdBank1<22>v" "WdBank1_22v"
"WdBank1<21>v" "WdBank1_21v"
"WdBank1<20>v" "WdBank1_20v"
"WdBank1<19>v" "WdBank1_19v"
"WdBank1<18>v" "WdBank1_18v"
"WdBank1<17>v" "WdBank1_17v"
"WdBank1<16>v" "WdBank1_16v"
"WdBank1<15>v" "WdBank1_15v"
"WdBank1<14>v" "WdBank1_14v"
"WdBank1<13>v" "WdBank1_13v"
"WdBank1<12>v" "WdBank1_12v"
"WdBank1<11>v" "WdBank1_11v"
"WdBank1<10>v" "WdBank1_10v"
"WdBank1<9>v" "WdBank1_9v"
"WdBank1<8>v" "WdBank1_8v"
"WdBank1<7>v" "WdBank1_7v"
"WdBank1<6>v" "WdBank1_6v"
"WdBank1<5>v" "WdBank1_5v"
"WdBank1<4>v" "WdBank1_4v"
"WdBank1<3>v" "WdBank1_3v"
"WdBank1<2>v" "WdBank1_2v"
"WdBank1<1>v" "WdBank1_1v"
"WdBank1<0>v" "WdBank1_0v"
"net018v" "net018v"
"Wdata<19>v" "Wdata_19v"
"Wdata<18>v" "Wdata_18v"
"Wdata<17>v" "Wdata_17v"
"Wdata<16>v" "Wdata_16v"
"net0136<0>v" "net0136_0v"
"net0136<1>v" "net0136_1v"
"Read<1>v" "Read_1v"
"net0190<0>v" "net0190_0v"
"net0190<1>v" "net0190_1v"
"net0190<2>v" "net0190_2v"
"net0190<3>v" "net0190_3v"
"net0190<4>v" "net0190_4v"
"net0190<5>v" "net0190_5v"
"net50<0>v" "net50_0v"
"net50<1>v" "net50_1v"
"net50<2>v" "net50_2v"
"net50<3>v" "net50_3v"
"net50<4>v" "net50_4v"
"net54<0>v" "net54_0v"
"net54<1>v" "net54_1v"
"net54<2>v" "net54_2v"
"net54<3>v" "net54_3v"
"net54<4>v" "net54_4v"
"net54<5>v" "net54_5v"
"net54<6>v" "net54_6v"
"net54<7>v" "net54_7v"
"net54<8>v" "net54_8v"
"net54<9>v" "net54_9v"
"net54<10>v" "net54_10v"
"net54<11>v" "net54_11v"
"net54<12>v" "net54_12v"
"net54<13>v" "net54_13v"
"net54<14>v" "net54_14v"
"net54<15>v" "net54_15v"
"net54<16>v" "net54_16v"
"net54<17>v" "net54_17v"
"net54<18>v" "net54_18v"
"net54<19>v" "net54_19v"
"net8v" "net8v"
"net42<0>v" "net42_0v"
"net42<1>v" "net42_1v"
"net42<2>v" "net42_2v"
"net42<3>v" "net42_3v"
"net42<4>v" "net42_4v"
"net42<5>v" "net42_5v"
"net42<6>v" "net42_6v"
"net42<7>v" "net42_7v"
"net42<8>v" "net42_8v"
"net42<9>v" "net42_9v"
"net42<10>v" "net42_10v"
"net42<11>v" "net42_11v"
"net42<12>v" "net42_12v"
"net42<13>v" "net42_13v"
"net42<14>v" "net42_14v"
"net42<15>v" "net42_15v"
"net42<16>v" "net42_16v"
"net42<17>v" "net42_17v"
"net42<18>v" "net42_18v"
"net42<19>v" "net42_19v"
"Rd<7>v" "Rd_7v"
"Rd<6>v" "Rd_6v"
"Rd<5>v" "Rd_5v"
"Rd<4>v" "Rd_4v"
"net34<0>v" "net34_0v"
"net34<1>v" "net34_1v"
"net34<2>v" "net34_2v"
"net34<3>v" "net34_3v"
"net34<4>v" "net34_4v"
"Wdata<11>v" "Wdata_11v"
"Wdata<10>v" "Wdata_10v"
"Wdata<9>v" "Wdata_9v"
"Wdata<8>v" "Wdata_8v"
"RdBank0Ack<7>v" "RdBank0Ack_7v"
"RdBank0Ack<6>v" "RdBank0Ack_6v"
"RdBank0Ack<5>v" "RdBank0Ack_5v"
"RdBank0Ack<4>v" "RdBank0Ack_4v"
"RdBank0Ack<3>v" "RdBank0Ack_3v"
"RdBank0Ack<2>v" "RdBank0Ack_2v"
"RdBank0Ack<1>v" "RdBank0Ack_1v"
"RdBank0Ack<0>v" "RdBank0Ack_0v"
"net0201v" "net0201v"
"net0103<0>v" "net0103_0v"
"net0103<1>v" "net0103_1v"
"net0103<2>v" "net0103_2v"
"net0103<3>v" "net0103_3v"
"net0103<4>v" "net0103_4v"
"net0103<5>v" "net0103_5v"
"net0103<6>v" "net0103_6v"
"net0103<7>v" "net0103_7v"
"net0103<8>v" "net0103_8v"
"net0103<9>v" "net0103_9v"
"net0103<10>v" "net0103_10v"
"net0103<11>v" "net0103_11v"
"net0103<12>v" "net0103_12v"
"net0103<13>v" "net0103_13v"
"net0103<14>v" "net0103_14v"
"net0103<15>v" "net0103_15v"
"net0103<16>v" "net0103_16v"
"net0103<17>v" "net0103_17v"
"net0103<18>v" "net0103_18v"
"net0103<19>v" "net0103_19v"
"net0103<20>v" "net0103_20v"
"net0103<21>v" "net0103_21v"
"net0103<22>v" "net0103_22v"
"net0103<23>v" "net0103_23v"
"net0103<24>v" "net0103_24v"
"net0103<25>v" "net0103_25v"
"net0103<26>v" "net0103_26v"
"net0103<27>v" "net0103_27v"
"net0103<28>v" "net0103_28v"
"net0103<29>v" "net0103_29v"
"net0103<30>v" "net0103_30v"
"net0103<31>v" "net0103_31v"
"net0168<0>v" "net0168_0v"
"net0168<1>v" "net0168_1v"
"net0168<2>v" "net0168_2v"
"net0168<3>v" "net0168_3v"
"net0168<4>v" "net0168_4v"
"net0168<5>v" "net0168_5v"
"net51<0>v" "net51_0v"
"net51<1>v" "net51_1v"
"net51<2>v" "net51_2v"
"net51<3>v" "net51_3v"
"net51<4>v" "net51_4v"
"net020v" "net020v"
"net55<0>v" "net55_0v"
"net55<1>v" "net55_1v"
"net55<2>v" "net55_2v"
"net55<3>v" "net55_3v"
"net55<4>v" "net55_4v"
"net55<5>v" "net55_5v"
"net55<6>v" "net55_6v"
"net55<7>v" "net55_7v"
"net55<8>v" "net55_8v"
"net55<9>v" "net55_9v"
"net55<10>v" "net55_10v"
"net55<11>v" "net55_11v"
"net55<12>v" "net55_12v"
"net55<13>v" "net55_13v"
"net55<14>v" "net55_14v"
"net55<15>v" "net55_15v"
"net55<16>v" "net55_16v"
"net55<17>v" "net55_17v"
"net55<18>v" "net55_18v"
"net55<19>v" "net55_19v"
"net49<0>v" "net49_0v"
"net49<1>v" "net49_1v"
"net49<2>v" "net49_2v"
"net49<3>v" "net49_3v"
"net49<4>v" "net49_4v"
"Wd<19>v" "Wd_19v"
"Wd<18>v" "Wd_18v"
"Wd<17>v" "Wd_17v"
"Wd<16>v" "Wd_16v"
"net38<0>v" "net38_0v"
"net38<1>v" "net38_1v"
"Wdata<3>v" "Wdata_3v"
"Wdata<2>v" "Wdata_2v"
"Wdata<1>v" "Wdata_1v"
"Wdata<0>v" "Wdata_0v"
"net0135<0>v" "net0135_0v"
"net0135<1>v" "net0135_1v"
"net0135<2>v" "net0135_2v"
"net0135<3>v" "net0135_3v"
"net0135<4>v" "net0135_4v"
"net0135<5>v" "net0135_5v"
"net0135<6>v" "net0135_6v"
"net0135<7>v" "net0135_7v"
"net0135<8>v" "net0135_8v"
"net0135<9>v" "net0135_9v"
"net0135<10>v" "net0135_10v"
"net0135<11>v" "net0135_11v"
"net0135<12>v" "net0135_12v"
"net0135<13>v" "net0135_13v"
"net0135<14>v" "net0135_14v"
"net0135<15>v" "net0135_15v"
"net0135<16>v" "net0135_16v"
"net0135<17>v" "net0135_17v"
"net0135<18>v" "net0135_18v"
"net0135<19>v" "net0135_19v"
"net48<0>v" "net48_0v"
"net48<1>v" "net48_1v"
"Bank0WAck<7>v" "Bank0WAck_7v"
"Bank0WAck<6>v" "Bank0WAck_6v"
"Bank0WAck<5>v" "Bank0WAck_5v"
"Bank0WAck<4>v" "Bank0WAck_4v"
"Bank0WAck<3>v" "Bank0WAck_3v"
"Bank0WAck<2>v" "Bank0WAck_2v"
"Bank0WAck<1>v" "Bank0WAck_1v"
"Bank0WAck<0>v" "Bank0WAck_0v"
"Wdata<7>v" "Wdata_7v"
"Wdata<6>v" "Wdata_6v"
"Wdata<5>v" "Wdata_5v"
"Wdata<4>v" "Wdata_4v"
"net022v" "net022v"
"Wdata<27>v" "Wdata_27v"
"Wdata<26>v" "Wdata_26v"
"Wdata<25>v" "Wdata_25v"
"Wdata<24>v" "Wdata_24v"
"Wd<27>v" "Wd_27v"
"Wd<26>v" "Wd_26v"
"Wd<25>v" "Wd_25v"
"Wd<24>v" "Wd_24v"
"net53<0>v" "net53_0v"
"net53<1>v" "net53_1v"
"net53<2>v" "net53_2v"
"net53<3>v" "net53_3v"
"net53<4>v" "net53_4v"
"net53<5>v" "net53_5v"
"net53<6>v" "net53_6v"
"net53<7>v" "net53_7v"
"net53<8>v" "net53_8v"
"net53<9>v" "net53_9v"
"net53<10>v" "net53_10v"
"net53<11>v" "net53_11v"
"net53<12>v" "net53_12v"
"net53<13>v" "net53_13v"
"net53<14>v" "net53_14v"
"net53<15>v" "net53_15v"
"net53<16>v" "net53_16v"
"net53<17>v" "net53_17v"
"net53<18>v" "net53_18v"
"net53<19>v" "net53_19v"
"Wdata<31>v" "Wdata_31v"
"Wdata<30>v" "Wdata_30v"
"Wdata<29>v" "Wdata_29v"
"Wdata<28>v" "Wdata_28v"
"net0143<0>v" "net0143_0v"
"net0143<1>v" "net0143_1v"
"net0143<2>v" "net0143_2v"
"net0143<3>v" "net0143_3v"
"net0143<4>v" "net0143_4v"
"net0143<5>v" "net0143_5v"
"net0143<6>v" "net0143_6v"
"net0143<7>v" "net0143_7v"
"net16v" "net16v"
"net0102<0>v" "net0102_0v"
"net0102<1>v" "net0102_1v"
"net0102<2>v" "net0102_2v"
"net0102<3>v" "net0102_3v"
"net0102<4>v" "net0102_4v"
"net0102<5>v" "net0102_5v"
"net0102<6>v" "net0102_6v"
"net0102<7>v" "net0102_7v"
"net4v" "net4v"
"net12v" "net12v"
"net45<0>v" "net45_0v"
"net45<1>v" "net45_1v"
"net44<0>v" "net44_0v"
"net44<1>v" "net44_1v"
"Wd<7>v" "Wd_7v"
"Wd<6>v" "Wd_6v"
"Wd<5>v" "Wd_5v"
"Wd<4>v" "Wd_4v"
"net0105<0>v" "net0105_0v"
"net0105<1>v" "net0105_1v"
"net0105<2>v" "net0105_2v"
"net0105<3>v" "net0105_3v"
"net0105<4>v" "net0105_4v"
"net0105<5>v" "net0105_5v"
"net0105<6>v" "net0105_6v"
"net0105<7>v" "net0105_7v"
"net0105<8>v" "net0105_8v"
"net0105<9>v" "net0105_9v"
"net0105<10>v" "net0105_10v"
"net0105<11>v" "net0105_11v"
"net0105<12>v" "net0105_12v"
"net0105<13>v" "net0105_13v"
"net0105<14>v" "net0105_14v"
"net0105<15>v" "net0105_15v"
"net0105<16>v" "net0105_16v"
"net0105<17>v" "net0105_17v"
"net0105<18>v" "net0105_18v"
"net0105<19>v" "net0105_19v"
"net0105<20>v" "net0105_20v"
"net0105<21>v" "net0105_21v"
"net0105<22>v" "net0105_22v"
"net0105<23>v" "net0105_23v"
"net0105<24>v" "net0105_24v"
"net0105<25>v" "net0105_25v"
"net0105<26>v" "net0105_26v"
"net0105<27>v" "net0105_27v"
"net0105<28>v" "net0105_28v"
"net0105<29>v" "net0105_29v"
"net0105<30>v" "net0105_30v"
"net0105<31>v" "net0105_31v"
"net0172<0>v" "net0172_0v"
"net0172<1>v" "net0172_1v"
"net0172<2>v" "net0172_2v"
"net0172<3>v" "net0172_3v"
"net0172<4>v" "net0172_4v"
"net0172<5>v" "net0172_5v"
"net0172<6>v" "net0172_6v"
"net0172<7>v" "net0172_7v"
"net0172<8>v" "net0172_8v"
"net0172<9>v" "net0172_9v"
"net0172<10>v" "net0172_10v"
"net0172<11>v" "net0172_11v"
"net0172<12>v" "net0172_12v"
"net0172<13>v" "net0172_13v"
"net0172<14>v" "net0172_14v"
"net0172<15>v" "net0172_15v"
"net0172<16>v" "net0172_16v"
"net0172<17>v" "net0172_17v"
"net0172<18>v" "net0172_18v"
"net0172<19>v" "net0172_19v"
"net0172<20>v" "net0172_20v"
"net0172<21>v" "net0172_21v"
"net0172<22>v" "net0172_22v"
"net0172<23>v" "net0172_23v"
"Rd<31>v" "Rd_31v"
"Rd<30>v" "Rd_30v"
"Rd<29>v" "Rd_29v"
"Rd<28>v" "Rd_28v"
"net39<0>v" "net39_0v"
"net39<1>v" "net39_1v"
"net39<2>v" "net39_2v"
"net39<3>v" "net39_3v"
"net39<4>v" "net39_4v"
"net39<5>v" "net39_5v"
"net39<6>v" "net39_6v"
"net39<7>v" "net39_7v"
"net39<8>v" "net39_8v"
"net39<9>v" "net39_9v"
"net39<10>v" "net39_10v"
"net39<11>v" "net39_11v"
"net39<12>v" "net39_12v"
"net39<13>v" "net39_13v"
"net39<14>v" "net39_14v"
"net39<15>v" "net39_15v"
"net39<16>v" "net39_16v"
"net39<17>v" "net39_17v"
"net39<18>v" "net39_18v"
"net39<19>v" "net39_19v"
"Wd<11>v" "Wd_11v"
"Wd<10>v" "Wd_10v"
"Wd<9>v" "Wd_9v"
"Wd<8>v" "Wd_8v"
"net41<0>v" "net41_0v"
"net41<1>v" "net41_1v"
"Rd<19>v" "Rd_19v"
"Rd<18>v" "Rd_18v"
"Rd<17>v" "Rd_17v"
"Rd<16>v" "Rd_16v"
"Rd<23>v" "Rd_23v"
"Rd<22>v" "Rd_22v"
"Rd<21>v" "Rd_21v"
"Rd<20>v" "Rd_20v"
"net35<0>v" "net35_0v"
"net35<1>v" "net35_1v"
"net0106<0>v" "net0106_0v"
"net0106<1>v" "net0106_1v"
"net0106<2>v" "net0106_2v"
"net0106<3>v" "net0106_3v"
"net0106<4>v" "net0106_4v"
"net0106<5>v" "net0106_5v"
"net0106<6>v" "net0106_6v"
"net0106<7>v" "net0106_7v"
"net47<0>v" "net47_0v"
"net47<1>v" "net47_1v"
"WdBank0<31>v" "WdBank0_31v"
"WdBank0<30>v" "WdBank0_30v"
"WdBank0<29>v" "WdBank0_29v"
"WdBank0<28>v" "WdBank0_28v"
"WdBank0<27>v" "WdBank0_27v"
"WdBank0<26>v" "WdBank0_26v"
"WdBank0<25>v" "WdBank0_25v"
"WdBank0<24>v" "WdBank0_24v"
"WdBank0<23>v" "WdBank0_23v"
"WdBank0<22>v" "WdBank0_22v"
"WdBank0<21>v" "WdBank0_21v"
"WdBank0<20>v" "WdBank0_20v"
"WdBank0<19>v" "WdBank0_19v"
"WdBank0<18>v" "WdBank0_18v"
"WdBank0<17>v" "WdBank0_17v"
"WdBank0<16>v" "WdBank0_16v"
"WdBank0<15>v" "WdBank0_15v"
"WdBank0<14>v" "WdBank0_14v"
"WdBank0<13>v" "WdBank0_13v"
"WdBank0<12>v" "WdBank0_12v"
"WdBank0<11>v" "WdBank0_11v"
"WdBank0<10>v" "WdBank0_10v"
"WdBank0<9>v" "WdBank0_9v"
"WdBank0<8>v" "WdBank0_8v"
"WdBank0<7>v" "WdBank0_7v"
"WdBank0<6>v" "WdBank0_6v"
"WdBank0<5>v" "WdBank0_5v"
"WdBank0<4>v" "WdBank0_4v"
"WdBank0<3>v" "WdBank0_3v"
"WdBank0<2>v" "WdBank0_2v"
"WdBank0<1>v" "WdBank0_1v"
"WdBank0<0>v" "WdBank0_0v"
"net17v" "net17v"
"net33<0>v" "net33_0v"
"net33<1>v" "net33_1v"
"net33<2>v" "net33_2v"
"net33<3>v" "net33_3v"
"net33<4>v" "net33_4v"
"net33<5>v" "net33_5v"
"net33<6>v" "net33_6v"
"net33<7>v" "net33_7v"
"net33<8>v" "net33_8v"
"net33<9>v" "net33_9v"
"net33<10>v" "net33_10v"
"net33<11>v" "net33_11v"
"net33<12>v" "net33_12v"
"net33<13>v" "net33_13v"
"net33<14>v" "net33_14v"
"net33<15>v" "net33_15v"
"net33<16>v" "net33_16v"
"net33<17>v" "net33_17v"
"net33<18>v" "net33_18v"
"net33<19>v" "net33_19v"
"net40<0>v" "net40_0v"
"net40<1>v" "net40_1v"
"net40<2>v" "net40_2v"
"net40<3>v" "net40_3v"
"net40<4>v" "net40_4v"
"Rd<3>v" "Rd_3v"
"Rd<2>v" "Rd_2v"
"Rd<1>v" "Rd_1v"
"Rd<0>v" "Rd_0v"
"RdBank0<31>v" "RdBank0_31v"
"RdBank0<30>v" "RdBank0_30v"
"RdBank0<29>v" "RdBank0_29v"
"RdBank0<28>v" "RdBank0_28v"
"RdBank0<27>v" "RdBank0_27v"
"RdBank0<26>v" "RdBank0_26v"
"RdBank0<25>v" "RdBank0_25v"
"RdBank0<24>v" "RdBank0_24v"
"RdBank0<23>v" "RdBank0_23v"
"RdBank0<22>v" "RdBank0_22v"
"RdBank0<21>v" "RdBank0_21v"
"RdBank0<20>v" "RdBank0_20v"
"RdBank0<19>v" "RdBank0_19v"
"RdBank0<18>v" "RdBank0_18v"
"RdBank0<17>v" "RdBank0_17v"
"RdBank0<16>v" "RdBank0_16v"
"RdBank0<15>v" "RdBank0_15v"
"RdBank0<14>v" "RdBank0_14v"
"RdBank0<13>v" "RdBank0_13v"
"RdBank0<12>v" "RdBank0_12v"
"RdBank0<11>v" "RdBank0_11v"
"RdBank0<10>v" "RdBank0_10v"
"RdBank0<9>v" "RdBank0_9v"
"RdBank0<8>v" "RdBank0_8v"
"RdBank0<7>v" "RdBank0_7v"
"RdBank0<6>v" "RdBank0_6v"
"RdBank0<5>v" "RdBank0_5v"
"RdBank0<4>v" "RdBank0_4v"
"RdBank0<3>v" "RdBank0_3v"
"RdBank0<2>v" "RdBank0_2v"
"RdBank0<1>v" "RdBank0_1v"
"RdBank0<0>v" "RdBank0_0v"
"WDataAck<7>v" "WDataAck_7v"
"WDataAck<6>v" "WDataAck_6v"
"WDataAck<5>v" "WDataAck_5v"
"WDataAck<4>v" "WDataAck_4v"
"WDataAck<3>v" "WDataAck_3v"
"WDataAck<2>v" "WDataAck_2v"
"WDataAck<1>v" "WDataAck_1v"
"WDataAck<0>v" "WDataAck_0v"
"RData<15>v" "RData_15v"
"RData<14>v" "RData_14v"
"RData<13>v" "RData_13v"
"RData<12>v" "RData_12v"
"RData<11>v" "RData_11v"
"RData<10>v" "RData_10v"
"RData<9>v" "RData_9v"
"RData<8>v" "RData_8v"
"RData<7>v" "RData_7v"
"RData<6>v" "RData_6v"
"RData<5>v" "RData_5v"
"RData<4>v" "RData_4v"
"RData<3>v" "RData_3v"
"RData<2>v" "RData_2v"
"RData<1>v" "RData_1v"
"RData<0>v" "RData_0v"
"WriteAckv" "WriteAckv"
"W_Address<11>v" "W_Address_11v"
"W_Address<10>v" "W_Address_10v"
"W_Address<9>v" "W_Address_9v"
"W_Address<8>v" "W_Address_8v"
"W_Address<7>v" "W_Address_7v"
"W_Address<6>v" "W_Address_6v"
"W_Address<5>v" "W_Address_5v"
"W_Address<4>v" "W_Address_4v"
"W_Address<3>v" "W_Address_3v"
"W_Address<2>v" "W_Address_2v"
"W_Address<1>v" "W_Address_1v"
"W_Address<0>v" "W_Address_0v"
"R_Address<11>v" "R_Address_11v"
"R_Address<10>v" "R_Address_10v"
"R_Address<9>v" "R_Address_9v"
"R_Address<8>v" "R_Address_8v"
"R_Address<7>v" "R_Address_7v"
"R_Address<6>v" "R_Address_6v"
"R_Address<5>v" "R_Address_5v"
"R_Address<4>v" "R_Address_4v"
"R_Address<3>v" "R_Address_3v"
"R_Address<2>v" "R_Address_2v"
"R_Address<1>v" "R_Address_1v"
"R_Address<0>v" "R_Address_0v"
"WData<15>v" "WData_15v"
"WData<14>v" "WData_14v"
"WData<13>v" "WData_13v"
"WData<12>v" "WData_12v"
"WData<11>v" "WData_11v"
"WData<10>v" "WData_10v"
"WData<9>v" "WData_9v"
"WData<8>v" "WData_8v"
"WData<7>v" "WData_7v"
"WData<6>v" "WData_6v"
"WData<5>v" "WData_5v"
"WData<4>v" "WData_4v"
"WData<3>v" "WData_3v"
"WData<2>v" "WData_2v"
"WData<1>v" "WData_1v"
"WData<0>v" "WData_0v"
"RdBank1Ack<7>v" "RdBank1Ack_7v"
"RdBank1Ack<6>v" "RdBank1Ack_6v"
"RdBank1Ack<5>v" "RdBank1Ack_5v"
"RdBank1Ack<4>v" "RdBank1Ack_4v"
"RdBank1Ack<3>v" "RdBank1Ack_3v"
"RdBank1Ack<2>v" "RdBank1Ack_2v"
"RdBank1Ack<1>v" "RdBank1Ack_1v"
"RdBank1Ack<0>v" "RdBank1Ack_0v"
