HEADER
"PSFversion" "1.00"
"I<3>v" "I_3v"
"O<0>v" "O_0v"
"I<2>v" "I_2v"
"I<1>v" "I_1v"
"I<0>v" "I_0v"
"net5v" "net5v"
"O<1>v" "O_1v"
"net011v" "net011v"
"Env" "Env"
"net010v" "net010v"
