HEADER
"PSFversion" "1.00"
"Yv" "Yv"
"Cv" "Cv"
"net11v" "net11v"
"Av" "Av"
"Dv" "Dv"
"Bv" "Bv"
