HEADER
"PSFversion" "1.00"
"I2n" "nand_1x"
"I5n I4n I3n" "inv_1x"
"I1n I0n" "_sub62"
"L0v" ":1v"
"L1v" ":2v"
"Lackv" ":3v"
"R0v" ":4v"
"R1v" ":5v"
"Rackv" ":6v"
"~R0v" ":7v"
"~R1v" ":8v"
