HEADER
"PSFversion" "1.00"
"I11n I10n I9n I8n I3n I2n I1n I0n" "_sub66"
"I7n I6n I5n I4n" "_sub67"
"~R0<3>v" ":1v"
"~R0<2>v" ":2v"
"~R0<1>v" ":3v"
"~R0<0>v" ":4v"
"~R1<3>v" ":5v"
"~R1<2>v" ":6v"
"~R1<1>v" ":7v"
"~R1<0>v" ":8v"
"A<63>v" ":9v"
"A<62>v" ":10v"
"A<61>v" ":11v"
"A<60>v" ":12v"
"A<59>v" ":13v"
"A<58>v" ":14v"
"A<57>v" ":15v"
"A<56>v" ":16v"
"A<55>v" ":17v"
"A<54>v" ":18v"
"A<53>v" ":19v"
"A<52>v" ":20v"
"A<51>v" ":21v"
"A<50>v" ":22v"
"A<49>v" ":23v"
"A<48>v" ":24v"
"A<47>v" ":25v"
"A<46>v" ":26v"
"A<45>v" ":27v"
"A<44>v" ":28v"
"A<43>v" ":29v"
"A<42>v" ":30v"
"A<41>v" ":31v"
"A<40>v" ":32v"
"A<39>v" ":33v"
"A<38>v" ":34v"
"A<37>v" ":35v"
"A<36>v" ":36v"
"A<35>v" ":37v"
"A<34>v" ":38v"
"A<33>v" ":39v"
"A<32>v" ":40v"
"A<31>v" ":41v"
"A<30>v" ":42v"
"A<29>v" ":43v"
"A<28>v" ":44v"
"A<27>v" ":45v"
"A<26>v" ":46v"
"A<25>v" ":47v"
"A<24>v" ":48v"
"A<23>v" ":49v"
"A<22>v" ":50v"
"A<21>v" ":51v"
"A<20>v" ":52v"
"A<19>v" ":53v"
"A<18>v" ":54v"
"A<17>v" ":55v"
"A<16>v" ":56v"
"A<15>v" ":57v"
"A<14>v" ":58v"
"A<13>v" ":59v"
"A<12>v" ":60v"
"A<11>v" ":61v"
"A<10>v" ":62v"
"A<9>v" ":63v"
"A<8>v" ":64v"
"A<7>v" ":65v"
"A<6>v" ":66v"
"A<5>v" ":67v"
"A<4>v" ":68v"
"A<3>v" ":69v"
"A<2>v" ":70v"
"A<1>v" ":71v"
"A<0>v" ":72v"
"B0<3>v" ":73v"
"B0<2>v" ":74v"
"B0<1>v" ":75v"
"B0<0>v" ":76v"
"B1<3>v" ":77v"
"B1<2>v" ":78v"
"B1<1>v" ":79v"
"B1<0>v" ":80v"
"S<7>v" ":81v"
"S<6>v" ":82v"
"S<5>v" ":83v"
"S<4>v" ":84v"
"S<3>v" ":85v"
"S<2>v" ":86v"
"S<1>v" ":87v"
"S<0>v" ":88v"
"W0<3>v" ":89v"
"W0<2>v" ":90v"
"W0<1>v" ":91v"
"W0<0>v" ":92v"
"W1<3>v" ":93v"
"W1<2>v" ":94v"
"W1<1>v" ":95v"
"W1<0>v" ":96v"
"Gov" ":97v"
