HEADER
"PSFversion" "1.00"
"net25v" "net25v"
"Sv" "Sv"
"net24v" "net24v"
"B1v" "B1v"
"B0v" "B0v"
"net22v" "net22v"
"net23v" "net23v"
"W0v" "W0v"
"W1v" "W1v"
