HEADER
"PSFversion" "1.00"
"I15n I14n I13n I12n I11n I10n I9n I8n I7n I6n I5n I4n I3n I2n I1n I0n" "and4_1x"
"A<15>v" ":1v"
"A<14>v" ":2v"
"A<13>v" ":3v"
"A<12>v" ":4v"
"A<11>v" ":5v"
"A<10>v" ":6v"
"A<9>v" ":7v"
"A<8>v" ":8v"
"A<7>v" ":9v"
"A<6>v" ":10v"
"A<5>v" ":11v"
"A<4>v" ":12v"
"A<3>v" ":13v"
"A<2>v" ":14v"
"A<1>v" ":15v"
"A<0>v" ":16v"
"1of4_1<3>v" ":17v"
"1of4_1<2>v" ":18v"
"1of4_1<1>v" ":19v"
"1of4_1<0>v" ":20v"
"1of4_2<3>v" ":21v"
"1of4_2<2>v" ":22v"
"1of4_2<1>v" ":23v"
"1of4_2<0>v" ":24v"
"Env" ":25v"
"EnOutv" ":26v"
