HEADER
"PSFversion" "1.00"
"Yv" "Yv"
"net14v" "net14v"
"net13v" "net13v"
"Av" "Av"
