HEADER
"PSFversion" "1.00"
"I26n I7n I24n I6n I3n I2n I1n I0n" "TH22"
"I30n I29n I31n I28n" "inv_1x"
"I12n" "or4_1x"
"I19n I22n I21n I20n" "nor_1x"
"I27n" "and4_1x"
"Lackv" ":1v"
"In<3>v" ":2v"
"In<2>v" ":3v"
"In<1>v" ":4v"
"In<0>v" ":5v"
"Rack<1>v" ":6v"
"Rack<0>v" ":7v"
"Out1<1>v" ":8v"
"Out1<0>v" ":9v"
"Out0<1>v" ":10v"
"Out0<0>v" ":11v"
