HEADER
"PSFversion" "1.00"
"I0n" "_sub87"
"I1n" "_sub92"
"RAddr_Ack<4>v" ":1v"
"RAddr_Ack<3>v" ":2v"
"RAddr_Ack<2>v" ":3v"
"RAddr_Ack<1>v" ":4v"
"RAddr_Ack<0>v" ":5v"
"Read<1>v" ":6v"
"Read<0>v" ":7v"
"ReadAck<7>v" ":8v"
"ReadAck<6>v" ":9v"
"ReadAck<5>v" ":10v"
"ReadAck<4>v" ":11v"
"ReadAck<3>v" ":12v"
"ReadAck<2>v" ":13v"
"ReadAck<1>v" ":14v"
"ReadAck<0>v" ":15v"
"ReadData<31>v" ":16v"
"ReadData<30>v" ":17v"
"ReadData<29>v" ":18v"
"ReadData<28>v" ":19v"
"ReadData<27>v" ":20v"
"ReadData<26>v" ":21v"
"ReadData<25>v" ":22v"
"ReadData<24>v" ":23v"
"ReadData<23>v" ":24v"
"ReadData<22>v" ":25v"
"ReadData<21>v" ":26v"
"ReadData<20>v" ":27v"
"ReadData<19>v" ":28v"
"ReadData<18>v" ":29v"
"ReadData<17>v" ":30v"
"ReadData<16>v" ":31v"
"ReadData<15>v" ":32v"
"ReadData<14>v" ":33v"
"ReadData<13>v" ":34v"
"ReadData<12>v" ":35v"
"ReadData<11>v" ":36v"
"ReadData<10>v" ":37v"
"ReadData<9>v" ":38v"
"ReadData<8>v" ":39v"
"ReadData<7>v" ":40v"
"ReadData<6>v" ":41v"
"ReadData<5>v" ":42v"
"ReadData<4>v" ":43v"
"ReadData<3>v" ":44v"
"ReadData<2>v" ":45v"
"ReadData<1>v" ":46v"
"ReadData<0>v" ":47v"
"Read_Ackv" ":48v"
"Read_Address<19>v" ":49v"
"Read_Address<18>v" ":50v"
"Read_Address<17>v" ":51v"
"Read_Address<16>v" ":52v"
"Read_Address<15>v" ":53v"
"Read_Address<14>v" ":54v"
"Read_Address<13>v" ":55v"
"Read_Address<12>v" ":56v"
"Read_Address<11>v" ":57v"
"Read_Address<10>v" ":58v"
"Read_Address<9>v" ":59v"
"Read_Address<8>v" ":60v"
"Read_Address<7>v" ":61v"
"Read_Address<6>v" ":62v"
"Read_Address<5>v" ":63v"
"Read_Address<4>v" ":64v"
"Read_Address<3>v" ":65v"
"Read_Address<2>v" ":66v"
"Read_Address<1>v" ":67v"
"Read_Address<0>v" ":68v"
"WAddr_Ack<4>v" ":69v"
"WAddr_Ack<3>v" ":70v"
"WAddr_Ack<2>v" ":71v"
"WAddr_Ack<1>v" ":72v"
"WAddr_Ack<0>v" ":73v"
"Write<1>v" ":74v"
"Write<0>v" ":75v"
"WriteAck<7>v" ":76v"
"WriteAck<6>v" ":77v"
"WriteAck<5>v" ":78v"
"WriteAck<4>v" ":79v"
"WriteAck<3>v" ":80v"
"WriteAck<2>v" ":81v"
"WriteAck<1>v" ":82v"
"WriteAck<0>v" ":83v"
"WriteData<31>v" ":84v"
"WriteData<30>v" ":85v"
"WriteData<29>v" ":86v"
"WriteData<28>v" ":87v"
"WriteData<27>v" ":88v"
"WriteData<26>v" ":89v"
"WriteData<25>v" ":90v"
"WriteData<24>v" ":91v"
"WriteData<23>v" ":92v"
"WriteData<22>v" ":93v"
"WriteData<21>v" ":94v"
"WriteData<20>v" ":95v"
"WriteData<19>v" ":96v"
"WriteData<18>v" ":97v"
"WriteData<17>v" ":98v"
"WriteData<16>v" ":99v"
"WriteData<15>v" ":100v"
"WriteData<14>v" ":101v"
"WriteData<13>v" ":102v"
"WriteData<12>v" ":103v"
"WriteData<11>v" ":104v"
"WriteData<10>v" ":105v"
"WriteData<9>v" ":106v"
"WriteData<8>v" ":107v"
"WriteData<7>v" ":108v"
"WriteData<6>v" ":109v"
"WriteData<5>v" ":110v"
"WriteData<4>v" ":111v"
"WriteData<3>v" ":112v"
"WriteData<2>v" ":113v"
"WriteData<1>v" ":114v"
"WriteData<0>v" ":115v"
"Write_Ackv" ":116v"
"Write_Address<19>v" ":117v"
"Write_Address<18>v" ":118v"
"Write_Address<17>v" ":119v"
"Write_Address<16>v" ":120v"
"Write_Address<15>v" ":121v"
"Write_Address<14>v" ":122v"
"Write_Address<13>v" ":123v"
"Write_Address<12>v" ":124v"
"Write_Address<11>v" ":125v"
"Write_Address<10>v" ":126v"
"Write_Address<9>v" ":127v"
"Write_Address<8>v" ":128v"
"Write_Address<7>v" ":129v"
"Write_Address<6>v" ":130v"
"Write_Address<5>v" ":131v"
"Write_Address<4>v" ":132v"
"Write_Address<3>v" ":133v"
"Write_Address<2>v" ":134v"
"Write_Address<1>v" ":135v"
"Write_Address<0>v" ":136v"
