HEADER
"PSFversion" "1.00"
"I0n I6n I7n I1n" "TH33"
"I11n I10n" "TH22"
"I12n I14n I15n I13n" "or2_1x"
"I21n I20n" "inv_1x"
"a<1>v" ":1v"
"a<0>v" ":2v"
"a_ackv" ":3v"
"ackv" ":4v"
"aselv" ":5v"
"b<1>v" ":6v"
"b<0>v" ":7v"
"b_ackv" ":8v"
"bselv" ":9v"
"out<1>v" ":10v"
"out<0>v" ":11v"
