HEADER
"PSFversion" "1.00"
"V1n V0n" "UCD_Analog_Parts_vdc_spectre"
"I20<19>v" "I20_19v"
"IBankn" "_sub35"
"I20<18>v" "I20_18v"
"I20<17>v" "I20_17v"
"I20<16>v" "I20_16v"
"I20<15>v" "I20_15v"
"I20<14>v" "I20_14v"
"I20<13>v" "I20_13v"
"I20<12>v" "I20_12v"
"I20<11>v" "I20_11v"
"I20<10>v" "I20_10v"
"I20<9>v" "I20_9v"
"I20<8>v" "I20_8v"
"I20<7>v" "I20_7v"
"I20<6>v" "I20_6v"
"I20<5>v" "I20_5v"
"I20<4>v" "I20_4v"
"I20<3>v" "I20_3v"
"I20<2>v" "I20_2v"
"I20<1>v" "I20_1v"
"I20<0>v" "I20_0v"
"I19<1>v" "I19_1v"
"I19<0>v" "I19_0v"
"I16<4>v" "I16_4v"
"I16<3>v" "I16_3v"
"I16<2>v" "I16_2v"
"I16<1>v" "I16_1v"
"I16<0>v" "I16_0v"
"I13<4>v" "I13_4v"
"I13<3>v" "I13_3v"
"I13<2>v" "I13_2v"
"I13<1>v" "I13_1v"
"I13<0>v" "I13_0v"
"I11<7>v" "I11_7v"
"I11<6>v" "I11_6v"
"I11<5>v" "I11_5v"
"I11<4>v" "I11_4v"
"I11<3>v" "I11_3v"
"I11<2>v" "I11_2v"
"I11<1>v" "I11_1v"
"I11<0>v" "I11_0v"
"I10<7>v" "I10_7v"
"I10<6>v" "I10_6v"
"I10<5>v" "I10_5v"
"I10<4>v" "I10_4v"
"I10<3>v" "I10_3v"
"I10<2>v" "I10_2v"
"I10<1>v" "I10_1v"
"I10<0>v" "I10_0v"
"I18<1>v" "I18_1v"
"I18<0>v" "I18_0v"
"I17<19>v" "I17_19v"
"I17<18>v" "I17_18v"
"I17<17>v" "I17_17v"
"I17<16>v" "I17_16v"
"I17<15>v" "I17_15v"
"I17<14>v" "I17_14v"
"I17<13>v" "I17_13v"
"I17<12>v" "I17_12v"
"I17<11>v" "I17_11v"
"I17<10>v" "I17_10v"
"I17<9>v" "I17_9v"
"I17<8>v" "I17_8v"
"I17<7>v" "I17_7v"
"I17<6>v" "I17_6v"
"I17<5>v" "I17_5v"
"I17<4>v" "I17_4v"
"I17<3>v" "I17_3v"
"I17<2>v" "I17_2v"
"I17<1>v" "I17_1v"
"I17<0>v" "I17_0v"
"I6<31>v" "I6_31v"
"I6<30>v" "I6_30v"
"I6<29>v" "I6_29v"
"I6<28>v" "I6_28v"
"I6<27>v" "I6_27v"
"I6<26>v" "I6_26v"
"I6<25>v" "I6_25v"
"I6<24>v" "I6_24v"
"I6<23>v" "I6_23v"
"I6<22>v" "I6_22v"
"I6<21>v" "I6_21v"
"I6<20>v" "I6_20v"
"I6<19>v" "I6_19v"
"I6<18>v" "I6_18v"
"I6<17>v" "I6_17v"
"I6<16>v" "I6_16v"
"I6<15>v" "I6_15v"
"I6<14>v" "I6_14v"
"I6<13>v" "I6_13v"
"I6<12>v" "I6_12v"
"I6<11>v" "I6_11v"
"I6<10>v" "I6_10v"
"I6<9>v" "I6_9v"
"I6<8>v" "I6_8v"
"I6<7>v" "I6_7v"
"I6<6>v" "I6_6v"
"I6<5>v" "I6_5v"
"I6<4>v" "I6_4v"
"I6<3>v" "I6_3v"
"I6<2>v" "I6_2v"
"I6<1>v" "I6_1v"
"I6<0>v" "I6_0v"
"I5<31>v" "I5_31v"
"I5<30>v" "I5_30v"
"I5<29>v" "I5_29v"
"I5<28>v" "I5_28v"
"I5<27>v" "I5_27v"
"I5<26>v" "I5_26v"
"I5<25>v" "I5_25v"
"I5<24>v" "I5_24v"
"I5<23>v" "I5_23v"
"I5<22>v" "I5_22v"
"I5<21>v" "I5_21v"
"I5<20>v" "I5_20v"
"I5<19>v" "I5_19v"
"I5<18>v" "I5_18v"
"I5<17>v" "I5_17v"
"I5<16>v" "I5_16v"
"I5<15>v" "I5_15v"
"I5<14>v" "I5_14v"
"I5<13>v" "I5_13v"
"I5<12>v" "I5_12v"
"I5<11>v" "I5_11v"
"I5<10>v" "I5_10v"
"I5<9>v" "I5_9v"
"I5<8>v" "I5_8v"
"I5<7>v" "I5_7v"
"I5<6>v" "I5_6v"
"I5<5>v" "I5_5v"
"I5<4>v" "I5_4v"
"I5<3>v" "I5_3v"
"I5<2>v" "I5_2v"
"I5<1>v" "I5_1v"
"I5<0>v" "I5_0v"
"I20<19>n I20<18>n I20<17>n I20<16>n I20<15>n I20<14>n I20<13>n I20<12>n I20<11>n I20<10>n I20<9>n I20<8>n I20<7>n I20<6>n I20<5>n I20<4>n I20<3>n I20<2>n I20<1>n I20<0>n I19<1>n I19<0>n I16<4>n I16<3>n I16<2>n I16<1>n I16<0>n I15n I13<4>n I13<3>n I13<2>n I13<1>n I13<0>n I11<7>n I11<6>n I11<5>n I11<4>n I11<3>n I11<2>n I11<1>n I11<0>n I10<7>n I10<6>n I10<5>n I10<4>n I10<3>n I10<2>n I10<1>n I10<0>n I18<1>n I18<0>n I17<19>n I17<18>n I17<17>n I17<16>n I17<15>n I17<14>n I17<13>n I17<12>n I17<11>n I17<10>n I17<9>n I17<8>n I17<7>n I17<6>n I17<5>n I17<4>n I17<3>n I17<2>n I17<1>n I17<0>n I14n I6<31>n I6<30>n I6<29>n I6<28>n I6<27>n I6<26>n I6<25>n I6<24>n I6<23>n I6<22>n I6<21>n I6<20>n I6<19>n I6<18>n I6<17>n I6<16>n I6<15>n I6<14>n I6<13>n I6<12>n I6<11>n I6<10>n I6<9>n I6<8>n I6<7>n I6<6>n I6<5>n I6<4>n I6<3>n I6<2>n I6<1>n I6<0>n I5<31>n I5<30>n I5<29>n I5<28>n I5<27>n I5<26>n I5<25>n I5<24>n I5<23>n I5<22>n I5<21>n I5<20>n I5<19>n I5<18>n I5<17>n I5<16>n I5<15>n I5<14>n I5<13>n I5<12>n I5<11>n I5<10>n I5<9>n I5<8>n I5<7>n I5<6>n I5<5>n I5<4>n I5<3>n I5<2>n I5<1>n I5<0>n" "inv_1xt"
