HEADER
"PSFversion" "1.00"
"WRWT<1>v" "WRWT_1v"
"WRWT<0>v" "WRWT_0v"
"~ReadAckv" "\\~ReadAckv"
"~RD_Ack<7>v" "\\~RD_Ack_7v"
"~RD_Ack<6>v" "\\~RD_Ack_6v"
"~RD_Ack<5>v" "\\~RD_Ack_5v"
"~RD_Ack<4>v" "\\~RD_Ack_4v"
"~RD_Ack<3>v" "\\~RD_Ack_3v"
"~RD_Ack<2>v" "\\~RD_Ack_2v"
"~RD_Ack<1>v" "\\~RD_Ack_1v"
"~RD_Ack<0>v" "\\~RD_Ack_0v"
"WD_AckT<7>v" "WD_AckT_7v"
"WD_AckT<6>v" "WD_AckT_6v"
"WD_AckT<5>v" "WD_AckT_5v"
"WD_AckT<4>v" "WD_AckT_4v"
"WD_AckT<3>v" "WD_AckT_3v"
"WD_AckT<2>v" "WD_AckT_2v"
"WD_AckT<1>v" "WD_AckT_1v"
"WD_AckT<0>v" "WD_AckT_0v"
"~WriteAckv" "\\~WriteAckv"
"ReadDataT<31>v" "ReadDataT_31v"
"ReadDataT<30>v" "ReadDataT_30v"
"ReadDataT<29>v" "ReadDataT_29v"
"ReadDataT<28>v" "ReadDataT_28v"
"ReadDataT<27>v" "ReadDataT_27v"
"ReadDataT<26>v" "ReadDataT_26v"
"ReadDataT<25>v" "ReadDataT_25v"
"ReadDataT<24>v" "ReadDataT_24v"
"ReadDataT<23>v" "ReadDataT_23v"
"ReadDataT<22>v" "ReadDataT_22v"
"ReadDataT<21>v" "ReadDataT_21v"
"ReadDataT<20>v" "ReadDataT_20v"
"ReadDataT<19>v" "ReadDataT_19v"
"ReadDataT<18>v" "ReadDataT_18v"
"ReadDataT<17>v" "ReadDataT_17v"
"ReadDataT<16>v" "ReadDataT_16v"
"ReadDataT<15>v" "ReadDataT_15v"
"ReadDataT<14>v" "ReadDataT_14v"
"ReadDataT<13>v" "ReadDataT_13v"
"ReadDataT<12>v" "ReadDataT_12v"
"ReadDataT<11>v" "ReadDataT_11v"
"ReadDataT<10>v" "ReadDataT_10v"
"ReadDataT<9>v" "ReadDataT_9v"
"ReadDataT<8>v" "ReadDataT_8v"
"ReadDataT<7>v" "ReadDataT_7v"
"ReadDataT<6>v" "ReadDataT_6v"
"ReadDataT<5>v" "ReadDataT_5v"
"ReadDataT<4>v" "ReadDataT_4v"
"ReadDataT<3>v" "ReadDataT_3v"
"ReadDataT<2>v" "ReadDataT_2v"
"ReadDataT<1>v" "ReadDataT_1v"
"ReadDataT<0>v" "ReadDataT_0v"
"~WRW<1>v" "\\~WRW_1v"
"~WRW<0>v" "\\~WRW_0v"
"RD_AckT<7>v" "RD_AckT_7v"
"RD_AckT<6>v" "RD_AckT_6v"
"RD_AckT<5>v" "RD_AckT_5v"
"RD_AckT<4>v" "RD_AckT_4v"
"RD_AckT<3>v" "RD_AckT_3v"
"RD_AckT<2>v" "RD_AckT_2v"
"RD_AckT<1>v" "RD_AckT_1v"
"RD_AckT<0>v" "RD_AckT_0v"
"WA_AckT<4>v" "WA_AckT_4v"
"WA_AckT<3>v" "WA_AckT_3v"
"WA_AckT<2>v" "WA_AckT_2v"
"WA_AckT<1>v" "WA_AckT_1v"
"WA_AckT<0>v" "WA_AckT_0v"
"RA_AckT<4>v" "RA_AckT_4v"
"RA_AckT<3>v" "RA_AckT_3v"
"RA_AckT<2>v" "RA_AckT_2v"
"RA_AckT<1>v" "RA_AckT_1v"
"RA_AckT<0>v" "RA_AckT_0v"
"~R_Address<19>v" "\\~R_Address_19v"
"~R_Address<18>v" "\\~R_Address_18v"
"~R_Address<17>v" "\\~R_Address_17v"
"~R_Address<16>v" "\\~R_Address_16v"
"~R_Address<15>v" "\\~R_Address_15v"
"~R_Address<14>v" "\\~R_Address_14v"
"~R_Address<13>v" "\\~R_Address_13v"
"~R_Address<12>v" "\\~R_Address_12v"
"~R_Address<11>v" "\\~R_Address_11v"
"~R_Address<10>v" "\\~R_Address_10v"
"~R_Address<9>v" "\\~R_Address_9v"
"~R_Address<8>v" "\\~R_Address_8v"
"~R_Address<7>v" "\\~R_Address_7v"
"~R_Address<6>v" "\\~R_Address_6v"
"~R_Address<5>v" "\\~R_Address_5v"
"~R_Address<4>v" "\\~R_Address_4v"
"~R_Address<3>v" "\\~R_Address_3v"
"~R_Address<2>v" "\\~R_Address_2v"
"~R_Address<1>v" "\\~R_Address_1v"
"~R_Address<0>v" "\\~R_Address_0v"
"~W_Address<19>v" "\\~W_Address_19v"
"~W_Address<18>v" "\\~W_Address_18v"
"~W_Address<17>v" "\\~W_Address_17v"
"~W_Address<16>v" "\\~W_Address_16v"
"~W_Address<15>v" "\\~W_Address_15v"
"~W_Address<14>v" "\\~W_Address_14v"
"~W_Address<13>v" "\\~W_Address_13v"
"~W_Address<12>v" "\\~W_Address_12v"
"~W_Address<11>v" "\\~W_Address_11v"
"~W_Address<10>v" "\\~W_Address_10v"
"~W_Address<9>v" "\\~W_Address_9v"
"~W_Address<8>v" "\\~W_Address_8v"
"~W_Address<7>v" "\\~W_Address_7v"
"~W_Address<6>v" "\\~W_Address_6v"
"~W_Address<5>v" "\\~W_Address_5v"
"~W_Address<4>v" "\\~W_Address_4v"
"~W_Address<3>v" "\\~W_Address_3v"
"~W_Address<2>v" "\\~W_Address_2v"
"~W_Address<1>v" "\\~W_Address_1v"
"~W_Address<0>v" "\\~W_Address_0v"
"~ReadData<31>v" "\\~ReadData_31v"
"~ReadData<30>v" "\\~ReadData_30v"
"~ReadData<29>v" "\\~ReadData_29v"
"~ReadData<28>v" "\\~ReadData_28v"
"~ReadData<27>v" "\\~ReadData_27v"
"~ReadData<26>v" "\\~ReadData_26v"
"~ReadData<25>v" "\\~ReadData_25v"
"~ReadData<24>v" "\\~ReadData_24v"
"~ReadData<23>v" "\\~ReadData_23v"
"~ReadData<22>v" "\\~ReadData_22v"
"~ReadData<21>v" "\\~ReadData_21v"
"~ReadData<20>v" "\\~ReadData_20v"
"~ReadData<19>v" "\\~ReadData_19v"
"~ReadData<18>v" "\\~ReadData_18v"
"~ReadData<17>v" "\\~ReadData_17v"
"~ReadData<16>v" "\\~ReadData_16v"
"~ReadData<15>v" "\\~ReadData_15v"
"~ReadData<14>v" "\\~ReadData_14v"
"~ReadData<13>v" "\\~ReadData_13v"
"~ReadData<12>v" "\\~ReadData_12v"
"~ReadData<11>v" "\\~ReadData_11v"
"~ReadData<10>v" "\\~ReadData_10v"
"~ReadData<9>v" "\\~ReadData_9v"
"~ReadData<8>v" "\\~ReadData_8v"
"~ReadData<7>v" "\\~ReadData_7v"
"~ReadData<6>v" "\\~ReadData_6v"
"~ReadData<5>v" "\\~ReadData_5v"
"~ReadData<4>v" "\\~ReadData_4v"
"~ReadData<3>v" "\\~ReadData_3v"
"~ReadData<2>v" "\\~ReadData_2v"
"~ReadData<1>v" "\\~ReadData_1v"
"~ReadData<0>v" "\\~ReadData_0v"
"WriteDataT<31>v" "WriteDataT_31v"
"WriteDataT<30>v" "WriteDataT_30v"
"WriteDataT<29>v" "WriteDataT_29v"
"WriteDataT<28>v" "WriteDataT_28v"
"WriteDataT<27>v" "WriteDataT_27v"
"WriteDataT<26>v" "WriteDataT_26v"
"WriteDataT<25>v" "WriteDataT_25v"
"WriteDataT<24>v" "WriteDataT_24v"
"WriteDataT<23>v" "WriteDataT_23v"
"WriteDataT<22>v" "WriteDataT_22v"
"WriteDataT<21>v" "WriteDataT_21v"
"WriteDataT<20>v" "WriteDataT_20v"
"WriteDataT<19>v" "WriteDataT_19v"
"WriteDataT<18>v" "WriteDataT_18v"
"WriteDataT<17>v" "WriteDataT_17v"
"WriteDataT<16>v" "WriteDataT_16v"
"WriteDataT<15>v" "WriteDataT_15v"
"WriteDataT<14>v" "WriteDataT_14v"
"WriteDataT<13>v" "WriteDataT_13v"
"WriteDataT<12>v" "WriteDataT_12v"
"WriteDataT<11>v" "WriteDataT_11v"
"WriteDataT<10>v" "WriteDataT_10v"
"WriteDataT<9>v" "WriteDataT_9v"
"WriteDataT<8>v" "WriteDataT_8v"
"WriteDataT<7>v" "WriteDataT_7v"
"WriteDataT<6>v" "WriteDataT_6v"
"WriteDataT<5>v" "WriteDataT_5v"
"WriteDataT<4>v" "WriteDataT_4v"
"WriteDataT<3>v" "WriteDataT_3v"
"WriteDataT<2>v" "WriteDataT_2v"
"WriteDataT<1>v" "WriteDataT_1v"
"WriteDataT<0>v" "WriteDataT_0v"
"R_AddressT<19>v" "R_AddressT_19v"
"R_AddressT<18>v" "R_AddressT_18v"
"R_AddressT<17>v" "R_AddressT_17v"
"R_AddressT<16>v" "R_AddressT_16v"
"R_AddressT<15>v" "R_AddressT_15v"
"R_AddressT<14>v" "R_AddressT_14v"
"R_AddressT<13>v" "R_AddressT_13v"
"R_AddressT<12>v" "R_AddressT_12v"
"R_AddressT<11>v" "R_AddressT_11v"
"R_AddressT<10>v" "R_AddressT_10v"
"R_AddressT<9>v" "R_AddressT_9v"
"R_AddressT<8>v" "R_AddressT_8v"
"R_AddressT<7>v" "R_AddressT_7v"
"R_AddressT<6>v" "R_AddressT_6v"
"R_AddressT<5>v" "R_AddressT_5v"
"R_AddressT<4>v" "R_AddressT_4v"
"R_AddressT<3>v" "R_AddressT_3v"
"R_AddressT<2>v" "R_AddressT_2v"
"R_AddressT<1>v" "R_AddressT_1v"
"R_AddressT<0>v" "R_AddressT_0v"
"~WriteData<31>v" "\\~WriteData_31v"
"~WriteData<30>v" "\\~WriteData_30v"
"~WriteData<29>v" "\\~WriteData_29v"
"~WriteData<28>v" "\\~WriteData_28v"
"~WriteData<27>v" "\\~WriteData_27v"
"~WriteData<26>v" "\\~WriteData_26v"
"~WriteData<25>v" "\\~WriteData_25v"
"~WriteData<24>v" "\\~WriteData_24v"
"~WriteData<23>v" "\\~WriteData_23v"
"~WriteData<22>v" "\\~WriteData_22v"
"~WriteData<21>v" "\\~WriteData_21v"
"~WriteData<20>v" "\\~WriteData_20v"
"~WriteData<19>v" "\\~WriteData_19v"
"~WriteData<18>v" "\\~WriteData_18v"
"~WriteData<17>v" "\\~WriteData_17v"
"~WriteData<16>v" "\\~WriteData_16v"
"~WriteData<15>v" "\\~WriteData_15v"
"~WriteData<14>v" "\\~WriteData_14v"
"~WriteData<13>v" "\\~WriteData_13v"
"~WriteData<12>v" "\\~WriteData_12v"
"~WriteData<11>v" "\\~WriteData_11v"
"~WriteData<10>v" "\\~WriteData_10v"
"~WriteData<9>v" "\\~WriteData_9v"
"~WriteData<8>v" "\\~WriteData_8v"
"~WriteData<7>v" "\\~WriteData_7v"
"~WriteData<6>v" "\\~WriteData_6v"
"~WriteData<5>v" "\\~WriteData_5v"
"~WriteData<4>v" "\\~WriteData_4v"
"~WriteData<3>v" "\\~WriteData_3v"
"~WriteData<2>v" "\\~WriteData_2v"
"~WriteData<1>v" "\\~WriteData_1v"
"~WriteData<0>v" "\\~WriteData_0v"
"W_AddressT<19>v" "W_AddressT_19v"
"W_AddressT<18>v" "W_AddressT_18v"
"W_AddressT<17>v" "W_AddressT_17v"
"W_AddressT<16>v" "W_AddressT_16v"
"W_AddressT<15>v" "W_AddressT_15v"
"W_AddressT<14>v" "W_AddressT_14v"
"W_AddressT<13>v" "W_AddressT_13v"
"W_AddressT<12>v" "W_AddressT_12v"
"W_AddressT<11>v" "W_AddressT_11v"
"W_AddressT<10>v" "W_AddressT_10v"
"W_AddressT<9>v" "W_AddressT_9v"
"W_AddressT<8>v" "W_AddressT_8v"
"W_AddressT<7>v" "W_AddressT_7v"
"W_AddressT<6>v" "W_AddressT_6v"
"W_AddressT<5>v" "W_AddressT_5v"
"W_AddressT<4>v" "W_AddressT_4v"
"W_AddressT<3>v" "W_AddressT_3v"
"W_AddressT<2>v" "W_AddressT_2v"
"W_AddressT<1>v" "W_AddressT_1v"
"W_AddressT<0>v" "W_AddressT_0v"
"ReadAckTv" "ReadAckTv"
"~WA_Ack<4>v" "\\~WA_Ack_4v"
"~WA_Ack<3>v" "\\~WA_Ack_3v"
"~WA_Ack<2>v" "\\~WA_Ack_2v"
"~WA_Ack<1>v" "\\~WA_Ack_1v"
"~WA_Ack<0>v" "\\~WA_Ack_0v"
"~RA_Ack<4>v" "\\~RA_Ack_4v"
"~RA_Ack<3>v" "\\~RA_Ack_3v"
"~RA_Ack<2>v" "\\~RA_Ack_2v"
"~RA_Ack<1>v" "\\~RA_Ack_1v"
"~RA_Ack<0>v" "\\~RA_Ack_0v"
"~WD_Ack<7>v" "\\~WD_Ack_7v"
"~WD_Ack<6>v" "\\~WD_Ack_6v"
"~WD_Ack<5>v" "\\~WD_Ack_5v"
"~WD_Ack<4>v" "\\~WD_Ack_4v"
"~WD_Ack<3>v" "\\~WD_Ack_3v"
"~WD_Ack<2>v" "\\~WD_Ack_2v"
"~WD_Ack<1>v" "\\~WD_Ack_1v"
"~WD_Ack<0>v" "\\~WD_Ack_0v"
"WriteAckTv" "WriteAckTv"
"RRWT<1>v" "RRWT_1v"
"RRWT<0>v" "RRWT_0v"
"~RRW<1>v" "\\~RRW_1v"
"~RRW<0>v" "\\~RRW_0v"
"gnd!v" "0v"
"vdd!v" "vdd!v"
"vcc!v" "vcc!v"
