HEADER
"PSFversion" "1.00"
"I0n" "_sub176"
"I1n" "_sub175"
"I3n" "_sub177"
"Ack<4>v" ":1v"
"Ack<3>v" ":2v"
"Ack<2>v" ":3v"
"Ack<1>v" ":4v"
"Ack<0>v" ":5v"
"Addr<19>v" ":6v"
"Addr<18>v" ":7v"
"Addr<17>v" ":8v"
"Addr<16>v" ":9v"
"Addr<15>v" ":10v"
"Addr<14>v" ":11v"
"Addr<13>v" ":12v"
"Addr<12>v" ":13v"
"Addr<11>v" ":14v"
"Addr<10>v" ":15v"
"Addr<9>v" ":16v"
"Addr<8>v" ":17v"
"Addr<7>v" ":18v"
"Addr<6>v" ":19v"
"Addr<5>v" ":20v"
"Addr<4>v" ":21v"
"Addr<3>v" ":22v"
"Addr<2>v" ":23v"
"Addr<1>v" ":24v"
"Addr<0>v" ":25v"
"RAddr_Ack<4>v" ":26v"
"RAddr_Ack<3>v" ":27v"
"RAddr_Ack<2>v" ":28v"
"RAddr_Ack<1>v" ":29v"
"RAddr_Ack<0>v" ":30v"
"RW<1>v" ":31v"
"RW<0>v" ":32v"
"RW_Ackv" ":33v"
"R_Addr<19>v" ":34v"
"R_Addr<18>v" ":35v"
"R_Addr<17>v" ":36v"
"R_Addr<16>v" ":37v"
"R_Addr<15>v" ":38v"
"R_Addr<14>v" ":39v"
"R_Addr<13>v" ":40v"
"R_Addr<12>v" ":41v"
"R_Addr<11>v" ":42v"
"R_Addr<10>v" ":43v"
"R_Addr<9>v" ":44v"
"R_Addr<8>v" ":45v"
"R_Addr<7>v" ":46v"
"R_Addr<6>v" ":47v"
"R_Addr<5>v" ":48v"
"R_Addr<4>v" ":49v"
"R_Addr<3>v" ":50v"
"R_Addr<2>v" ":51v"
"R_Addr<1>v" ":52v"
"R_Addr<0>v" ":53v"
"Read<1>v" ":54v"
"Read<0>v" ":55v"
"Read_Ackv" ":56v"
"WAddr_Ack<4>v" ":57v"
"WAddr_Ack<3>v" ":58v"
"WAddr_Ack<2>v" ":59v"
"WAddr_Ack<1>v" ":60v"
"WAddr_Ack<0>v" ":61v"
"W_Addr<19>v" ":62v"
"W_Addr<18>v" ":63v"
"W_Addr<17>v" ":64v"
"W_Addr<16>v" ":65v"
"W_Addr<15>v" ":66v"
"W_Addr<14>v" ":67v"
"W_Addr<13>v" ":68v"
"W_Addr<12>v" ":69v"
"W_Addr<11>v" ":70v"
"W_Addr<10>v" ":71v"
"W_Addr<9>v" ":72v"
"W_Addr<8>v" ":73v"
"W_Addr<7>v" ":74v"
"W_Addr<6>v" ":75v"
"W_Addr<5>v" ":76v"
"W_Addr<4>v" ":77v"
"W_Addr<3>v" ":78v"
"W_Addr<2>v" ":79v"
"W_Addr<1>v" ":80v"
"W_Addr<0>v" ":81v"
"Write<1>v" ":82v"
"Write<0>v" ":83v"
"Write_Ackv" ":84v"
