HEADER
"PSFversion" "1.00"
"X<11>v" "X_11v"
"X<10>v" "X_10v"
"X<9>v" "X_9v"
"X<8>v" "X_8v"
"X<7>v" "X_7v"
"X<6>v" "X_6v"
"X<5>v" "X_5v"
"X<4>v" "X_4v"
"X<3>v" "X_3v"
"X<2>v" "X_2v"
"X<1>v" "X_1v"
"X<0>v" "X_0v"
"X<15>v" "X_15v"
"X<14>v" "X_14v"
"X<13>v" "X_13v"
"X<12>v" "X_12v"
"nX30v" "nX30v"
"nX1512v" "nX1512v"
"nX118v" "nX118v"
"nX74v" "nX74v"
"Yv" "Yv"
