HEADER
"PSFversion" "1.00"
"net18v" "net18v"
"net029v" "net029v"
"net026v" "net026v"
"net22v" "net22v"
"inValidv" "inValidv"
"outValidv" "outValidv"
"outAckv" "outAckv"
"R1iv" "R1iv"
"inAckv" "inAckv"
"oEv" "oEv"
"W0v" "W0v"
"R0iv" "R0iv"
"W1v" "W1v"
"R0i+1v" "R0i\\+1v"
"R1i+1v" "R1i\\+1v"
