HEADER
"PSFversion" "1.00"
"I30n I5n I4n" "inv_1x"
"I12n" "_sub7"
"M5n M4n M3n M2n" "NCSU_TechLib_FreePDK15_nfet_spectre"
"M1n M0n" "NCSU_TechLib_FreePDK15_pfet_spectre"
"I6n" "nand_1x"
"I9n" "or_1x"
"I2n I3n" "inv_weak_1x"
"I11n" "TH22"
"Aiv" ":1v"
"Ai+1v" ":2v"
"R0iv" ":3v"
"R0i+1v" ":4v"
"R1iv" ":5v"
"R1i+1v" ":6v"
