HEADER
"PSFversion" "1.00"
"net016v" "net016v"
"net015v" "net015v"
"net014v" "net014v"
"net10v" "net10v"
"net013v" "net013v"
"Out<0>v" "Out_0v"
"L0<1>v" "L0_1v"
"net20v" "net20v"
"Lack<1>v" "Lack_1v"
"net7v" "net7v"
"Out<2>v" "Out_2v"
"Out<3>v" "Out_3v"
"Out<1>v" "Out_1v"
"L0<0>v" "L0_0v"
"net11v" "net11v"
"net018v" "net018v"
"Lack<0>v" "Lack_0v"
"L1<0>v" "L1_0v"
"L1<1>v" "L1_1v"
"net19v" "net19v"
"net8v" "net8v"
"net019v" "net019v"
"net6v" "net6v"
"Rackv" "Rackv"
