HEADER
"PSFversion" "1.00"
"I29n I23n I12n I26n I25n I24n" "nor_1x"
"I34n" "and4_1x"
"I28n I7n I6n" "_sub17"
"I27n I0n I1n I21n I22n" "TH22"
"I38n I37n I36n I35n" "inv_1x"
"L0<1>v" ":1v"
"L0<0>v" ":2v"
"L1<1>v" ":3v"
"L1<0>v" ":4v"
"Lack<1>v" ":5v"
"Lack<0>v" ":6v"
"Out<3>v" ":7v"
"Out<2>v" ":8v"
"Out<1>v" ":9v"
"Out<0>v" ":10v"
"Rackv" ":11v"
