HEADER
"PSFversion" "1.00"
"Lackv" "Lackv"
"L0v" "L0v"
"Rackv" "Rackv"
"net21v" "net21v"
"R0v" "R0v"
"L1v" "L1v"
"net09v" "net09v"
"net010v" "net010v"
"R1v" "R1v"
