HEADER
"PSFversion" "1.00"
"I24<3>v" "I24_3v"
"I0n" "_sub39"
"I24<2>v" "I24_2v"
"I24<1>v" "I24_1v"
"I24<0>v" "I24_0v"
"I22<3>v" "I22_3v"
"I22<2>v" "I22_2v"
"I22<1>v" "I22_1v"
"I22<0>v" "I22_0v"
"I19<3>v" "I19_3v"
"I19<2>v" "I19_2v"
"I19<1>v" "I19_1v"
"I19<0>v" "I19_0v"
"I18<3>v" "I18_3v"
"I18<2>v" "I18_2v"
"I18<1>v" "I18_1v"
"I18<0>v" "I18_0v"
"I8<1>v" "I8_1v"
"I8<0>v" "I8_0v"
"I4<3>v" "I4_3v"
"I4<2>v" "I4_2v"
"I4<1>v" "I4_1v"
"I4<0>v" "I4_0v"
"I3<3>v" "I3_3v"
"I3<2>v" "I3_2v"
"I3<1>v" "I3_1v"
"I3<0>v" "I3_0v"
"I5<3>v" "I5_3v"
"I5<2>v" "I5_2v"
"I5<1>v" "I5_1v"
"I5<0>v" "I5_0v"
"I6<3>v" "I6_3v"
"I6<2>v" "I6_2v"
"I6<1>v" "I6_1v"
"I6<0>v" "I6_0v"
"I24<3>n I24<2>n I24<1>n I24<0>n I22<3>n I22<2>n I22<1>n I22<0>n I19<3>n I19<2>n I19<1>n I19<0>n I18<3>n I18<2>n I18<1>n I18<0>n I13n I16n I8<1>n I8<0>n I4<3>n I4<2>n I4<1>n I4<0>n I7n I3<3>n I3<2>n I3<1>n I3<0>n I5<3>n I5<2>n I5<1>n I5<0>n I6<3>n I6<2>n I6<1>n I6<0>n" "inv_1xt"
"V1n V0n" "UCD_Analog_Parts_vdc_spectre"
