HEADER
"PSFversion" "1.00"
"net33<0>v" "net33_0v"
"net33<1>v" "net33_1v"
"net39v" "net39v"
"net26<0>v" "net26_0v"
"net26<1>v" "net26_1v"
"net26<2>v" "net26_2v"
"net26<3>v" "net26_3v"
"net31<0>v" "net31_0v"
"net31<1>v" "net31_1v"
"net31<2>v" "net31_2v"
"net31<3>v" "net31_3v"
"net27<0>v" "net27_0v"
"net27<1>v" "net27_1v"
"net27<2>v" "net27_2v"
"net27<3>v" "net27_3v"
"net36<0>v" "net36_0v"
"net36<1>v" "net36_1v"
"net36<2>v" "net36_2v"
"net36<3>v" "net36_3v"
"net32<0>v" "net32_0v"
"net32<1>v" "net32_1v"
"net32<2>v" "net32_2v"
"net32<3>v" "net32_3v"
"net044<0>v" "net044_0v"
"net044<1>v" "net044_1v"
"net044<2>v" "net044_2v"
"net044<3>v" "net044_3v"
"net25<0>v" "net25_0v"
"net25<1>v" "net25_1v"
"net25<2>v" "net25_2v"
"net25<3>v" "net25_3v"
"net37v" "net37v"
"net47<0>v" "net47_0v"
"net47<1>v" "net47_1v"
"net47<2>v" "net47_2v"
"net47<3>v" "net47_3v"
"net21v" "net21v"
"net043<0>v" "net043_0v"
"net043<1>v" "net043_1v"
"net043<2>v" "net043_2v"
"net043<3>v" "net043_3v"
"net053<0>v" "net053_0v"
"net053<1>v" "net053_1v"
"net053<2>v" "net053_2v"
"net053<3>v" "net053_3v"
"net46<0>v" "net46_0v"
"net46<1>v" "net46_1v"
"net46<2>v" "net46_2v"
"net46<3>v" "net46_3v"
"net43<0>v" "net43_0v"
"net43<1>v" "net43_1v"
"net43<2>v" "net43_2v"
"net43<3>v" "net43_3v"
"net015v" "net015v"
"net30<0>v" "net30_0v"
"net30<1>v" "net30_1v"
"net30<2>v" "net30_2v"
"net30<3>v" "net30_3v"
"net22v" "net22v"
"net38<0>v" "net38_0v"
"net38<1>v" "net38_1v"
"net29<0>v" "net29_0v"
"net29<1>v" "net29_1v"
"net29<2>v" "net29_2v"
"net29<3>v" "net29_3v"
"net44<0>v" "net44_0v"
"net44<1>v" "net44_1v"
"net44<2>v" "net44_2v"
"net44<3>v" "net44_3v"
"net34<0>v" "net34_0v"
"net34<1>v" "net34_1v"
"net054<0>v" "net054_0v"
"net054<1>v" "net054_1v"
"net054<2>v" "net054_2v"
"net054<3>v" "net054_3v"
"net40<0>v" "net40_0v"
"net40<1>v" "net40_1v"
"net40<2>v" "net40_2v"
"net40<3>v" "net40_3v"
"net45v" "net45v"
"net023v" "net023v"
"net42v" "net42v"
"net41v" "net41v"
"net28<0>v" "net28_0v"
"net28<1>v" "net28_1v"
"net28<2>v" "net28_2v"
"net28<3>v" "net28_3v"
"net35<0>v" "net35_0v"
"net35<1>v" "net35_1v"
"gnd!v" "0v"
"vcc!v" "vcc!v"
"vdd!v" "vdd!v"
