HEADER
"PSFversion" "1.00"
"M0n" "NCSU_TechLib_FreePDK15_nfet_spectre"
"M1n" "NCSU_TechLib_FreePDK15_pfet_spectre"
"Av" ":1v"
"Yv" ":2v"
