HEADER
"PSFversion" "1.00"
"Av" "Av"
"Bv" "Bv"
"net17v" "net17v"
"Yv" "Yv"
"net032v" "net032v"
"net5v" "net5v"
"net037v" "net037v"
"net9v" "net9v"
