HEADER
"PSFversion" "1.00"
"I36n" "Dcache_TagMem"
"V0n V1n" "UCD_Analog_Parts_vdc_spectre"
"I39<6>v" "I39_6v"
"I39<5>v" "I39_5v"
"I39<4>v" "I39_4v"
"I39<3>v" "I39_3v"
"I39<2>v" "I39_2v"
"I39<1>v" "I39_1v"
"I39<0>v" "I39_0v"
"I38<6>v" "I38_6v"
"I38<5>v" "I38_5v"
"I38<4>v" "I38_4v"
"I38<3>v" "I38_3v"
"I38<2>v" "I38_2v"
"I38<1>v" "I38_1v"
"I38<0>v" "I38_0v"
"I24<31>v" "I24_31v"
"I24<30>v" "I24_30v"
"I24<29>v" "I24_29v"
"I24<28>v" "I24_28v"
"I24<27>v" "I24_27v"
"I24<26>v" "I24_26v"
"I24<25>v" "I24_25v"
"I24<24>v" "I24_24v"
"I24<23>v" "I24_23v"
"I24<22>v" "I24_22v"
"I24<21>v" "I24_21v"
"I24<20>v" "I24_20v"
"I24<19>v" "I24_19v"
"I24<18>v" "I24_18v"
"I24<17>v" "I24_17v"
"I24<16>v" "I24_16v"
"I24<15>v" "I24_15v"
"I24<14>v" "I24_14v"
"I24<13>v" "I24_13v"
"I24<12>v" "I24_12v"
"I24<11>v" "I24_11v"
"I24<10>v" "I24_10v"
"I24<9>v" "I24_9v"
"I24<8>v" "I24_8v"
"I24<7>v" "I24_7v"
"I24<6>v" "I24_6v"
"I24<5>v" "I24_5v"
"I24<4>v" "I24_4v"
"I24<3>v" "I24_3v"
"I24<2>v" "I24_2v"
"I24<1>v" "I24_1v"
"I24<0>v" "I24_0v"
"I42<31>v" "I42_31v"
"I42<30>v" "I42_30v"
"I42<29>v" "I42_29v"
"I42<28>v" "I42_28v"
"I42<27>v" "I42_27v"
"I42<26>v" "I42_26v"
"I42<25>v" "I42_25v"
"I42<24>v" "I42_24v"
"I42<23>v" "I42_23v"
"I42<22>v" "I42_22v"
"I42<21>v" "I42_21v"
"I42<20>v" "I42_20v"
"I42<19>v" "I42_19v"
"I42<18>v" "I42_18v"
"I42<17>v" "I42_17v"
"I42<16>v" "I42_16v"
"I42<15>v" "I42_15v"
"I42<14>v" "I42_14v"
"I42<13>v" "I42_13v"
"I42<12>v" "I42_12v"
"I42<11>v" "I42_11v"
"I42<10>v" "I42_10v"
"I42<9>v" "I42_9v"
"I42<8>v" "I42_8v"
"I42<7>v" "I42_7v"
"I42<6>v" "I42_6v"
"I42<5>v" "I42_5v"
"I42<4>v" "I42_4v"
"I42<3>v" "I42_3v"
"I42<2>v" "I42_2v"
"I42<1>v" "I42_1v"
"I42<0>v" "I42_0v"
"I11<31>v" "I11_31v"
"I11<30>v" "I11_30v"
"I11<29>v" "I11_29v"
"I11<28>v" "I11_28v"
"I11<27>v" "I11_27v"
"I11<26>v" "I11_26v"
"I11<25>v" "I11_25v"
"I11<24>v" "I11_24v"
"I11<23>v" "I11_23v"
"I11<22>v" "I11_22v"
"I11<21>v" "I11_21v"
"I11<20>v" "I11_20v"
"I11<19>v" "I11_19v"
"I11<18>v" "I11_18v"
"I11<17>v" "I11_17v"
"I11<16>v" "I11_16v"
"I11<15>v" "I11_15v"
"I11<14>v" "I11_14v"
"I11<13>v" "I11_13v"
"I11<12>v" "I11_12v"
"I11<11>v" "I11_11v"
"I11<10>v" "I11_10v"
"I11<9>v" "I11_9v"
"I11<8>v" "I11_8v"
"I11<7>v" "I11_7v"
"I11<6>v" "I11_6v"
"I11<5>v" "I11_5v"
"I11<4>v" "I11_4v"
"I11<3>v" "I11_3v"
"I11<2>v" "I11_2v"
"I11<1>v" "I11_1v"
"I11<0>v" "I11_0v"
"I9<31>v" "I9_31v"
"I9<30>v" "I9_30v"
"I9<29>v" "I9_29v"
"I9<28>v" "I9_28v"
"I9<27>v" "I9_27v"
"I9<26>v" "I9_26v"
"I9<25>v" "I9_25v"
"I9<24>v" "I9_24v"
"I9<23>v" "I9_23v"
"I9<22>v" "I9_22v"
"I9<21>v" "I9_21v"
"I9<20>v" "I9_20v"
"I9<19>v" "I9_19v"
"I9<18>v" "I9_18v"
"I9<17>v" "I9_17v"
"I9<16>v" "I9_16v"
"I9<15>v" "I9_15v"
"I9<14>v" "I9_14v"
"I9<13>v" "I9_13v"
"I9<12>v" "I9_12v"
"I9<11>v" "I9_11v"
"I9<10>v" "I9_10v"
"I9<9>v" "I9_9v"
"I9<8>v" "I9_8v"
"I9<7>v" "I9_7v"
"I9<6>v" "I9_6v"
"I9<5>v" "I9_5v"
"I9<4>v" "I9_4v"
"I9<3>v" "I9_3v"
"I9<2>v" "I9_2v"
"I9<1>v" "I9_1v"
"I9<0>v" "I9_0v"
"I17n I15n I7n I26n I25n I39<6>n I39<5>n I39<4>n I39<3>n I39<2>n I39<1>n I39<0>n I38<6>n I38<5>n I38<4>n I38<3>n I38<2>n I38<1>n I38<0>n I24<31>n I24<30>n I24<29>n I24<28>n I24<27>n I24<26>n I24<25>n I24<24>n I24<23>n I24<22>n I24<21>n I24<20>n I24<19>n I24<18>n I24<17>n I24<16>n I24<15>n I24<14>n I24<13>n I24<12>n I24<11>n I24<10>n I24<9>n I24<8>n I24<7>n I24<6>n I24<5>n I24<4>n I24<3>n I24<2>n I24<1>n I24<0>n I42<31>n I42<30>n I42<29>n I42<28>n I42<27>n I42<26>n I42<25>n I42<24>n I42<23>n I42<22>n I42<21>n I42<20>n I42<19>n I42<18>n I42<17>n I42<16>n I42<15>n I42<14>n I42<13>n I42<12>n I42<11>n I42<10>n I42<9>n I42<8>n I42<7>n I42<6>n I42<5>n I42<4>n I42<3>n I42<2>n I42<1>n I42<0>n I11<31>n I11<30>n I11<29>n I11<28>n I11<27>n I11<26>n I11<25>n I11<24>n I11<23>n I11<22>n I11<21>n I11<20>n I11<19>n I11<18>n I11<17>n I11<16>n I11<15>n I11<14>n I11<13>n I11<12>n I11<11>n I11<10>n I11<9>n I11<8>n I11<7>n I11<6>n I11<5>n I11<4>n I11<3>n I11<2>n I11<1>n I11<0>n I9<31>n I9<30>n I9<29>n I9<28>n I9<27>n I9<26>n I9<25>n I9<24>n I9<23>n I9<22>n I9<21>n I9<20>n I9<19>n I9<18>n I9<17>n I9<16>n I9<15>n I9<14>n I9<13>n I9<12>n I9<11>n I9<10>n I9<9>n I9<8>n I9<7>n I9<6>n I9<5>n I9<4>n I9<3>n I9<2>n I9<1>n I9<0>n" "inv_1xt"
