HEADER
"PSFversion" "1.00"
"I0n" "_sub98"
"C0<31>v" "C0_31v"
"I1n" "_sub101"
"C0<30>v" "C0_30v"
"C0<29>v" "C0_29v"
"C0<28>v" "C0_28v"
"C0<27>v" "C0_27v"
"C0<26>v" "C0_26v"
"C0<25>v" "C0_25v"
"C0<24>v" "C0_24v"
"C0<23>v" "C0_23v"
"C0<22>v" "C0_22v"
"C0<21>v" "C0_21v"
"C0<20>v" "C0_20v"
"C0<19>v" "C0_19v"
"C0<18>v" "C0_18v"
"C0<17>v" "C0_17v"
"C0<16>v" "C0_16v"
"C0<15>v" "C0_15v"
"C0<14>v" "C0_14v"
"C0<13>v" "C0_13v"
"C0<12>v" "C0_12v"
"C0<11>v" "C0_11v"
"C0<10>v" "C0_10v"
"C0<9>v" "C0_9v"
"C0<8>v" "C0_8v"
"C0<7>v" "C0_7v"
"C0<6>v" "C0_6v"
"C0<5>v" "C0_5v"
"C0<4>v" "C0_4v"
"C0<3>v" "C0_3v"
"C0<2>v" "C0_2v"
"C0<1>v" "C0_1v"
"C0<0>v" "C0_0v"
"C2<31>v" "C2_31v"
"C2<30>v" "C2_30v"
"C2<29>v" "C2_29v"
"C2<28>v" "C2_28v"
"C2<27>v" "C2_27v"
"C2<26>v" "C2_26v"
"C2<25>v" "C2_25v"
"C2<24>v" "C2_24v"
"C2<23>v" "C2_23v"
"C2<22>v" "C2_22v"
"C2<21>v" "C2_21v"
"C2<20>v" "C2_20v"
"C2<19>v" "C2_19v"
"C2<18>v" "C2_18v"
"C2<17>v" "C2_17v"
"C2<16>v" "C2_16v"
"C2<15>v" "C2_15v"
"C2<14>v" "C2_14v"
"C2<13>v" "C2_13v"
"C2<12>v" "C2_12v"
"C2<11>v" "C2_11v"
"C2<10>v" "C2_10v"
"C2<9>v" "C2_9v"
"C2<8>v" "C2_8v"
"C2<7>v" "C2_7v"
"C2<6>v" "C2_6v"
"C2<5>v" "C2_5v"
"C2<4>v" "C2_4v"
"C2<3>v" "C2_3v"
"C2<2>v" "C2_2v"
"C2<1>v" "C2_1v"
"C2<0>v" "C2_0v"
"C3<31>v" "C3_31v"
"C3<30>v" "C3_30v"
"C3<29>v" "C3_29v"
"C3<28>v" "C3_28v"
"C3<27>v" "C3_27v"
"C3<26>v" "C3_26v"
"C3<25>v" "C3_25v"
"C3<24>v" "C3_24v"
"C3<23>v" "C3_23v"
"C3<22>v" "C3_22v"
"C3<21>v" "C3_21v"
"C3<20>v" "C3_20v"
"C3<19>v" "C3_19v"
"C3<18>v" "C3_18v"
"C3<17>v" "C3_17v"
"C3<16>v" "C3_16v"
"C3<15>v" "C3_15v"
"C3<14>v" "C3_14v"
"C3<13>v" "C3_13v"
"C3<12>v" "C3_12v"
"C3<11>v" "C3_11v"
"C3<10>v" "C3_10v"
"C3<9>v" "C3_9v"
"C3<8>v" "C3_8v"
"C3<7>v" "C3_7v"
"C3<6>v" "C3_6v"
"C3<5>v" "C3_5v"
"C3<4>v" "C3_4v"
"C3<3>v" "C3_3v"
"C3<2>v" "C3_2v"
"C3<1>v" "C3_1v"
"C3<0>v" "C3_0v"
"C1<31>v" "C1_31v"
"C1<30>v" "C1_30v"
"C1<29>v" "C1_29v"
"C1<28>v" "C1_28v"
"C1<27>v" "C1_27v"
"C1<26>v" "C1_26v"
"C1<25>v" "C1_25v"
"C1<24>v" "C1_24v"
"C1<23>v" "C1_23v"
"C1<22>v" "C1_22v"
"C1<21>v" "C1_21v"
"C1<20>v" "C1_20v"
"C1<19>v" "C1_19v"
"C1<18>v" "C1_18v"
"C1<17>v" "C1_17v"
"C1<16>v" "C1_16v"
"C1<15>v" "C1_15v"
"C1<14>v" "C1_14v"
"C1<13>v" "C1_13v"
"C1<12>v" "C1_12v"
"C1<11>v" "C1_11v"
"C1<10>v" "C1_10v"
"C1<9>v" "C1_9v"
"C1<8>v" "C1_8v"
"C1<7>v" "C1_7v"
"C1<6>v" "C1_6v"
"C1<5>v" "C1_5v"
"C1<4>v" "C1_4v"
"C1<3>v" "C1_3v"
"C1<2>v" "C1_2v"
"C1<1>v" "C1_1v"
"C1<0>v" "C1_0v"
"C0<31>n C0<30>n C0<29>n C0<28>n C0<27>n C0<26>n C0<25>n C0<24>n C0<23>n C0<22>n C0<21>n C0<20>n C0<19>n C0<18>n C0<17>n C0<16>n C0<15>n C0<14>n C0<13>n C0<12>n C0<11>n C0<10>n C0<9>n C0<8>n C0<7>n C0<6>n C0<5>n C0<4>n C0<3>n C0<2>n C0<1>n C0<0>n C2<31>n C2<30>n C2<29>n C2<28>n C2<27>n C2<26>n C2<25>n C2<24>n C2<23>n C2<22>n C2<21>n C2<20>n C2<19>n C2<18>n C2<17>n C2<16>n C2<15>n C2<14>n C2<13>n C2<12>n C2<11>n C2<10>n C2<9>n C2<8>n C2<7>n C2<6>n C2<5>n C2<4>n C2<3>n C2<2>n C2<1>n C2<0>n C3<31>n C3<30>n C3<29>n C3<28>n C3<27>n C3<26>n C3<25>n C3<24>n C3<23>n C3<22>n C3<21>n C3<20>n C3<19>n C3<18>n C3<17>n C3<16>n C3<15>n C3<14>n C3<13>n C3<12>n C3<11>n C3<10>n C3<9>n C3<8>n C3<7>n C3<6>n C3<5>n C3<4>n C3<3>n C3<2>n C3<1>n C3<0>n C1<31>n C1<30>n C1<29>n C1<28>n C1<27>n C1<26>n C1<25>n C1<24>n C1<23>n C1<22>n C1<21>n C1<20>n C1<19>n C1<18>n C1<17>n C1<16>n C1<15>n C1<14>n C1<13>n C1<12>n C1<11>n C1<10>n C1<9>n C1<8>n C1<7>n C1<6>n C1<5>n C1<4>n C1<3>n C1<2>n C1<1>n C1<0>n" "UCD_Analog_Parts_cap_spectre"
"I2n" "_sub102"
"I3n" "_sub104"
"GoRv" ":1v"
"GoWv" ":2v"
"KRev" ":3v"
"KWev" ":4v"
"R0<31>v" ":5v"
"R0<30>v" ":6v"
"R0<29>v" ":7v"
"R0<28>v" ":8v"
"R0<27>v" ":9v"
"R0<26>v" ":10v"
"R0<25>v" ":11v"
"R0<24>v" ":12v"
"R0<23>v" ":13v"
"R0<22>v" ":14v"
"R0<21>v" ":15v"
"R0<20>v" ":16v"
"R0<19>v" ":17v"
"R0<18>v" ":18v"
"R0<17>v" ":19v"
"R0<16>v" ":20v"
"R0<15>v" ":21v"
"R0<14>v" ":22v"
"R0<13>v" ":23v"
"R0<12>v" ":24v"
"R0<11>v" ":25v"
"R0<10>v" ":26v"
"R0<9>v" ":27v"
"R0<8>v" ":28v"
"R0<7>v" ":29v"
"R0<6>v" ":30v"
"R0<5>v" ":31v"
"R0<4>v" ":32v"
"R0<3>v" ":33v"
"R0<2>v" ":34v"
"R0<1>v" ":35v"
"R0<0>v" ":36v"
"R1<31>v" ":37v"
"R1<30>v" ":38v"
"R1<29>v" ":39v"
"R1<28>v" ":40v"
"R1<27>v" ":41v"
"R1<26>v" ":42v"
"R1<25>v" ":43v"
"R1<24>v" ":44v"
"R1<23>v" ":45v"
"R1<22>v" ":46v"
"R1<21>v" ":47v"
"R1<20>v" ":48v"
"R1<19>v" ":49v"
"R1<18>v" ":50v"
"R1<17>v" ":51v"
"R1<16>v" ":52v"
"R1<15>v" ":53v"
"R1<14>v" ":54v"
"R1<13>v" ":55v"
"R1<12>v" ":56v"
"R1<11>v" ":57v"
"R1<10>v" ":58v"
"R1<9>v" ":59v"
"R1<8>v" ":60v"
"R1<7>v" ":61v"
"R1<6>v" ":62v"
"R1<5>v" ":63v"
"R1<4>v" ":64v"
"R1<3>v" ":65v"
"R1<2>v" ":66v"
"R1<1>v" ":67v"
"R1<0>v" ":68v"
"R_Addr<4>v" ":69v"
"R_Addr<3>v" ":70v"
"R_Addr<2>v" ":71v"
"R_Addr<1>v" ":72v"
"R_Addr<0>v" ":73v"
"Rev" ":74v"
"Resetv" ":75v"
"W0<31>v" ":76v"
"W0<30>v" ":77v"
"W0<29>v" ":78v"
"W0<28>v" ":79v"
"W0<27>v" ":80v"
"W0<26>v" ":81v"
"W0<25>v" ":82v"
"W0<24>v" ":83v"
"W0<23>v" ":84v"
"W0<22>v" ":85v"
"W0<21>v" ":86v"
"W0<20>v" ":87v"
"W0<19>v" ":88v"
"W0<18>v" ":89v"
"W0<17>v" ":90v"
"W0<16>v" ":91v"
"W0<15>v" ":92v"
"W0<14>v" ":93v"
"W0<13>v" ":94v"
"W0<12>v" ":95v"
"W0<11>v" ":96v"
"W0<10>v" ":97v"
"W0<9>v" ":98v"
"W0<8>v" ":99v"
"W0<7>v" ":100v"
"W0<6>v" ":101v"
"W0<5>v" ":102v"
"W0<4>v" ":103v"
"W0<3>v" ":104v"
"W0<2>v" ":105v"
"W0<1>v" ":106v"
"W0<0>v" ":107v"
"W1<31>v" ":108v"
"W1<30>v" ":109v"
"W1<29>v" ":110v"
"W1<28>v" ":111v"
"W1<27>v" ":112v"
"W1<26>v" ":113v"
"W1<25>v" ":114v"
"W1<24>v" ":115v"
"W1<23>v" ":116v"
"W1<22>v" ":117v"
"W1<21>v" ":118v"
"W1<20>v" ":119v"
"W1<19>v" ":120v"
"W1<18>v" ":121v"
"W1<17>v" ":122v"
"W1<16>v" ":123v"
"W1<15>v" ":124v"
"W1<14>v" ":125v"
"W1<13>v" ":126v"
"W1<12>v" ":127v"
"W1<11>v" ":128v"
"W1<10>v" ":129v"
"W1<9>v" ":130v"
"W1<8>v" ":131v"
"W1<7>v" ":132v"
"W1<6>v" ":133v"
"W1<5>v" ":134v"
"W1<4>v" ":135v"
"W1<3>v" ":136v"
"W1<2>v" ":137v"
"W1<1>v" ":138v"
"W1<0>v" ":139v"
"W_Addr<4>v" ":140v"
"W_Addr<3>v" ":141v"
"W_Addr<2>v" ":142v"
"W_Addr<1>v" ":143v"
"W_Addr<0>v" ":144v"
"We<7>v" ":145v"
"We<6>v" ":146v"
"We<5>v" ":147v"
"We<4>v" ":148v"
"We<3>v" ":149v"
"We<2>v" ":150v"
"We<1>v" ":151v"
"We<0>v" ":152v"
