HEADER
"PSFversion" "1.00"
"~R1<3>v" "\\~R1_3v"
"~R1<2>v" "\\~R1_2v"
"~R1<1>v" "\\~R1_1v"
"~R1<0>v" "\\~R1_0v"
"JRiv" "JRiv"
"~W1<0>v" "\\~W1_0v"
"~R0<3>v" "\\~R0_3v"
"~R0<2>v" "\\~R0_2v"
"~R0<1>v" "\\~R0_1v"
"~R0<0>v" "\\~R0_0v"
"~W1<2>v" "\\~W1_2v"
"~W1<3>v" "\\~W1_3v"
"JWiv" "JWiv"
"~W0<3>v" "\\~W0_3v"
"~W0<2>v" "\\~W0_2v"
"~W0<1>v" "\\~W0_1v"
"~W1<1>v" "\\~W1_1v"
"~W0<0>v" "\\~W0_0v"
