HEADER
"PSFversion" "1.00"
"~R0v" "\\~R0v"
"~W0v" "\\~W0v"
"~W1v" "\\~W1v"
"JWiv" "JWiv"
"JRiv" "JRiv"
"Qbv" "Qbv"
"Qv" "Qv"
"~R1v" "\\~R1v"
"net020v" "net020v"
"net023v" "net023v"
