HEADER
"PSFversion" "1.00"
"~R1<31>v" "\\~R1_31v"
"~R1<30>v" "\\~R1_30v"
"~R1<29>v" "\\~R1_29v"
"~R1<28>v" "\\~R1_28v"
"~R1<27>v" "\\~R1_27v"
"~R1<26>v" "\\~R1_26v"
"~R1<25>v" "\\~R1_25v"
"~R1<24>v" "\\~R1_24v"
"~R1<23>v" "\\~R1_23v"
"~R1<22>v" "\\~R1_22v"
"~R1<21>v" "\\~R1_21v"
"~R1<20>v" "\\~R1_20v"
"~R1<19>v" "\\~R1_19v"
"~R1<18>v" "\\~R1_18v"
"~R1<17>v" "\\~R1_17v"
"~R1<16>v" "\\~R1_16v"
"~R1<15>v" "\\~R1_15v"
"~R1<14>v" "\\~R1_14v"
"~R1<13>v" "\\~R1_13v"
"~R1<12>v" "\\~R1_12v"
"~R1<11>v" "\\~R1_11v"
"~R1<10>v" "\\~R1_10v"
"~R1<9>v" "\\~R1_9v"
"~R1<8>v" "\\~R1_8v"
"~R1<7>v" "\\~R1_7v"
"~R1<6>v" "\\~R1_6v"
"~R1<5>v" "\\~R1_5v"
"~R1<4>v" "\\~R1_4v"
"~R1<3>v" "\\~R1_3v"
"~R1<2>v" "\\~R1_2v"
"~R1<1>v" "\\~R1_1v"
"~R1<0>v" "\\~R1_0v"
"Re2<7>v" "Re2_7v"
"~R0<7>v" "\\~R0_7v"
"~R0<6>v" "\\~R0_6v"
"~R0<5>v" "\\~R0_5v"
"~R0<4>v" "\\~R0_4v"
"~R0<15>v" "\\~R0_15v"
"~R0<14>v" "\\~R0_14v"
"~R0<13>v" "\\~R0_13v"
"~R0<12>v" "\\~R0_12v"
"~R0<11>v" "\\~R0_11v"
"~R0<10>v" "\\~R0_10v"
"~R0<9>v" "\\~R0_9v"
"~R0<8>v" "\\~R0_8v"
"~R0<31>v" "\\~R0_31v"
"~R0<30>v" "\\~R0_30v"
"~R0<29>v" "\\~R0_29v"
"~R0<28>v" "\\~R0_28v"
"Re2<6>v" "Re2_6v"
"Re2<5>v" "Re2_5v"
"Re2<4>v" "Re2_4v"
"Re2<3>v" "Re2_3v"
"Re2<2>v" "Re2_2v"
"Re2<1>v" "Re2_1v"
"Re2<0>v" "Re2_0v"
"~R0<3>v" "\\~R0_3v"
"~R0<2>v" "\\~R0_2v"
"~R0<1>v" "\\~R0_1v"
"~R0<0>v" "\\~R0_0v"
"~R0<19>v" "\\~R0_19v"
"~R0<18>v" "\\~R0_18v"
"~R0<17>v" "\\~R0_17v"
"~R0<16>v" "\\~R0_16v"
"~R0<23>v" "\\~R0_23v"
"~R0<22>v" "\\~R0_22v"
"~R0<21>v" "\\~R0_21v"
"~R0<20>v" "\\~R0_20v"
"~R0<27>v" "\\~R0_27v"
"~R0<26>v" "\\~R0_26v"
"~R0<25>v" "\\~R0_25v"
"~R0<24>v" "\\~R0_24v"
"Rev" "Rev"
