HEADER
"PSFversion" "1.00"
"I0n" "_sub21"
"I1n" "_sub24"
"I2n" "_sub25"
"I3n" "_sub27"
"GoRv" ":1v"
"GoWv" ":2v"
"KRev" ":3v"
"KWev" ":4v"
"R0<31>v" ":5v"
"R0<30>v" ":6v"
"R0<29>v" ":7v"
"R0<28>v" ":8v"
"R0<27>v" ":9v"
"R0<26>v" ":10v"
"R0<25>v" ":11v"
"R0<24>v" ":12v"
"R0<23>v" ":13v"
"R0<22>v" ":14v"
"R0<21>v" ":15v"
"R0<20>v" ":16v"
"R0<19>v" ":17v"
"R0<18>v" ":18v"
"R0<17>v" ":19v"
"R0<16>v" ":20v"
"R0<15>v" ":21v"
"R0<14>v" ":22v"
"R0<13>v" ":23v"
"R0<12>v" ":24v"
"R0<11>v" ":25v"
"R0<10>v" ":26v"
"R0<9>v" ":27v"
"R0<8>v" ":28v"
"R0<7>v" ":29v"
"R0<6>v" ":30v"
"R0<5>v" ":31v"
"R0<4>v" ":32v"
"R0<3>v" ":33v"
"R0<2>v" ":34v"
"R0<1>v" ":35v"
"R0<0>v" ":36v"
"R1<31>v" ":37v"
"R1<30>v" ":38v"
"R1<29>v" ":39v"
"R1<28>v" ":40v"
"R1<27>v" ":41v"
"R1<26>v" ":42v"
"R1<25>v" ":43v"
"R1<24>v" ":44v"
"R1<23>v" ":45v"
"R1<22>v" ":46v"
"R1<21>v" ":47v"
"R1<20>v" ":48v"
"R1<19>v" ":49v"
"R1<18>v" ":50v"
"R1<17>v" ":51v"
"R1<16>v" ":52v"
"R1<15>v" ":53v"
"R1<14>v" ":54v"
"R1<13>v" ":55v"
"R1<12>v" ":56v"
"R1<11>v" ":57v"
"R1<10>v" ":58v"
"R1<9>v" ":59v"
"R1<8>v" ":60v"
"R1<7>v" ":61v"
"R1<6>v" ":62v"
"R1<5>v" ":63v"
"R1<4>v" ":64v"
"R1<3>v" ":65v"
"R1<2>v" ":66v"
"R1<1>v" ":67v"
"R1<0>v" ":68v"
"R_Addr<4>v" ":69v"
"R_Addr<3>v" ":70v"
"R_Addr<2>v" ":71v"
"R_Addr<1>v" ":72v"
"R_Addr<0>v" ":73v"
"Rev" ":74v"
"Resetv" ":75v"
"W0<31>v" ":76v"
"W0<30>v" ":77v"
"W0<29>v" ":78v"
"W0<28>v" ":79v"
"W0<27>v" ":80v"
"W0<26>v" ":81v"
"W0<25>v" ":82v"
"W0<24>v" ":83v"
"W0<23>v" ":84v"
"W0<22>v" ":85v"
"W0<21>v" ":86v"
"W0<20>v" ":87v"
"W0<19>v" ":88v"
"W0<18>v" ":89v"
"W0<17>v" ":90v"
"W0<16>v" ":91v"
"W0<15>v" ":92v"
"W0<14>v" ":93v"
"W0<13>v" ":94v"
"W0<12>v" ":95v"
"W0<11>v" ":96v"
"W0<10>v" ":97v"
"W0<9>v" ":98v"
"W0<8>v" ":99v"
"W0<7>v" ":100v"
"W0<6>v" ":101v"
"W0<5>v" ":102v"
"W0<4>v" ":103v"
"W0<3>v" ":104v"
"W0<2>v" ":105v"
"W0<1>v" ":106v"
"W0<0>v" ":107v"
"W1<31>v" ":108v"
"W1<30>v" ":109v"
"W1<29>v" ":110v"
"W1<28>v" ":111v"
"W1<27>v" ":112v"
"W1<26>v" ":113v"
"W1<25>v" ":114v"
"W1<24>v" ":115v"
"W1<23>v" ":116v"
"W1<22>v" ":117v"
"W1<21>v" ":118v"
"W1<20>v" ":119v"
"W1<19>v" ":120v"
"W1<18>v" ":121v"
"W1<17>v" ":122v"
"W1<16>v" ":123v"
"W1<15>v" ":124v"
"W1<14>v" ":125v"
"W1<13>v" ":126v"
"W1<12>v" ":127v"
"W1<11>v" ":128v"
"W1<10>v" ":129v"
"W1<9>v" ":130v"
"W1<8>v" ":131v"
"W1<7>v" ":132v"
"W1<6>v" ":133v"
"W1<5>v" ":134v"
"W1<4>v" ":135v"
"W1<3>v" ":136v"
"W1<2>v" ":137v"
"W1<1>v" ":138v"
"W1<0>v" ":139v"
"W_Addr<4>v" ":140v"
"W_Addr<3>v" ":141v"
"W_Addr<2>v" ":142v"
"W_Addr<1>v" ":143v"
"W_Addr<0>v" ":144v"
"We<7>v" ":145v"
"We<6>v" ":146v"
"We<5>v" ":147v"
"We<4>v" ":148v"
"We<3>v" ":149v"
"We<2>v" ":150v"
"We<1>v" ":151v"
"We<0>v" ":152v"
