HEADER
"PSFversion" "1.00"
"wn10v" "wn10v"
"JRi<24>v" "JRi_24v"
"JWi<31>v" "JWi_31v"
"JWi<30>v" "JWi_30v"
"JWi<29>v" "JWi_29v"
"JWi<28>v" "JWi_28v"
"JWi<27>v" "JWi_27v"
"JWi<26>v" "JWi_26v"
"JWi<25>v" "JWi_25v"
"JWi<24>v" "JWi_24v"
"JWi<23>v" "JWi_23v"
"JWi<22>v" "JWi_22v"
"JWi<21>v" "JWi_21v"
"JWi<20>v" "JWi_20v"
"JWi<19>v" "JWi_19v"
"JWi<18>v" "JWi_18v"
"JWi<17>v" "JWi_17v"
"JWi<16>v" "JWi_16v"
"JWi<15>v" "JWi_15v"
"JWi<14>v" "JWi_14v"
"JWi<13>v" "JWi_13v"
"JWi<12>v" "JWi_12v"
"JWi<11>v" "JWi_11v"
"JWi<10>v" "JWi_10v"
"JWi<9>v" "JWi_9v"
"JWi<8>v" "JWi_8v"
"JWi<7>v" "JWi_7v"
"JWi<6>v" "JWi_6v"
"JWi<5>v" "JWi_5v"
"JWi<4>v" "JWi_4v"
"JWi<3>v" "JWi_3v"
"JWi<2>v" "JWi_2v"
"JWi<1>v" "JWi_1v"
"JWi<0>v" "JWi_0v"
"I_Read<4>v" "I_Read_4v"
"KRvv" "KRvv"
"I_Write<4>v" "I_Write_4v"
"I_Write<3>v" "I_Write_3v"
"I_Write<2>v" "I_Write_2v"
"I_Write<1>v" "I_Write_1v"
"I_Write<0>v" "I_Write_0v"
"JRi<31>v" "JRi_31v"
"JRi<30>v" "JRi_30v"
"JRi<29>v" "JRi_29v"
"JRi<28>v" "JRi_28v"
"JRi<27>v" "JRi_27v"
"JRi<26>v" "JRi_26v"
"JRi<25>v" "JRi_25v"
"JRi<23>v" "JRi_23v"
"JRi<22>v" "JRi_22v"
"JRi<21>v" "JRi_21v"
"JRi<20>v" "JRi_20v"
"JRi<19>v" "JRi_19v"
"JRi<18>v" "JRi_18v"
"JRi<17>v" "JRi_17v"
"JRi<16>v" "JRi_16v"
"JRi<15>v" "JRi_15v"
"JRi<14>v" "JRi_14v"
"JRi<13>v" "JRi_13v"
"JRi<12>v" "JRi_12v"
"JRi<11>v" "JRi_11v"
"JRi<10>v" "JRi_10v"
"JRi<9>v" "JRi_9v"
"JRi<8>v" "JRi_8v"
"JRi<7>v" "JRi_7v"
"JRi<6>v" "JRi_6v"
"JRi<5>v" "JRi_5v"
"JRi<4>v" "JRi_4v"
"JRi<3>v" "JRi_3v"
"JRi<2>v" "JRi_2v"
"JRi<1>v" "JRi_1v"
"JRi<0>v" "JRi_0v"
"net20v" "net20v"
"net21v" "net21v"
"rn2v" "rn2v"
"rn3v" "rn3v"
"rn4v" "rn4v"
"rn6v" "rn6v"
"GoWv" "GoWv"
"wn9v" "wn9v"
"WSel<0>v" "WSel_0v"
"wn8v" "wn8v"
"WSel<1>v" "WSel_1v"
"RSel<0>v" "RSel_0v"
"wn7v" "wn7v"
"wn6v" "wn6v"
"rn7v" "rn7v"
"rn8v" "rn8v"
"wn5v" "wn5v"
"RSel<1>v" "RSel_1v"
"I_Read<3>v" "I_Read_3v"
"I_Read<2>v" "I_Read_2v"
"I_Read<1>v" "I_Read_1v"
"I_Read<0>v" "I_Read_0v"
"wn4v" "wn4v"
"wn3v" "wn3v"
"wn2v" "wn2v"
"wn1v" "wn1v"
"rn10v" "rn10v"
"rn9v" "rn9v"
"Resetv" "Resetv"
"KWvv" "KWvv"
"rn5v" "rn5v"
"rn1v" "rn1v"
"GoRv" "GoRv"
