HEADER
"PSFversion" "1.00"
"~R1<31>v" "\\~R1_31v"
"~R1<30>v" "\\~R1_30v"
"~R1<29>v" "\\~R1_29v"
"~R1<28>v" "\\~R1_28v"
"~R1<27>v" "\\~R1_27v"
"~R1<26>v" "\\~R1_26v"
"~R1<25>v" "\\~R1_25v"
"~R1<24>v" "\\~R1_24v"
"~R1<23>v" "\\~R1_23v"
"~R1<22>v" "\\~R1_22v"
"~R1<21>v" "\\~R1_21v"
"~R1<20>v" "\\~R1_20v"
"~R1<19>v" "\\~R1_19v"
"~R1<18>v" "\\~R1_18v"
"~R1<17>v" "\\~R1_17v"
"~R1<16>v" "\\~R1_16v"
"~R1<15>v" "\\~R1_15v"
"~R1<14>v" "\\~R1_14v"
"~R1<13>v" "\\~R1_13v"
"~R1<12>v" "\\~R1_12v"
"~R1<11>v" "\\~R1_11v"
"~R1<10>v" "\\~R1_10v"
"~R1<9>v" "\\~R1_9v"
"~R1<8>v" "\\~R1_8v"
"~R1<7>v" "\\~R1_7v"
"~R1<6>v" "\\~R1_6v"
"~R1<5>v" "\\~R1_5v"
"~R1<4>v" "\\~R1_4v"
"~R1<3>v" "\\~R1_3v"
"~R1<2>v" "\\~R1_2v"
"~R1<1>v" "\\~R1_1v"
"~R1<0>v" "\\~R1_0v"
"ResetTv" "ResetTv"
"~GoRv" "\\~GoRv"
"~W1<31>v" "\\~W1_31v"
"~W1<30>v" "\\~W1_30v"
"~W1<29>v" "\\~W1_29v"
"~W1<28>v" "\\~W1_28v"
"~W1<27>v" "\\~W1_27v"
"~W1<26>v" "\\~W1_26v"
"~W1<25>v" "\\~W1_25v"
"~W1<24>v" "\\~W1_24v"
"~W1<23>v" "\\~W1_23v"
"~W1<22>v" "\\~W1_22v"
"~W1<21>v" "\\~W1_21v"
"~W1<20>v" "\\~W1_20v"
"~W1<19>v" "\\~W1_19v"
"~W1<18>v" "\\~W1_18v"
"~W1<17>v" "\\~W1_17v"
"~W1<16>v" "\\~W1_16v"
"~W1<15>v" "\\~W1_15v"
"~W1<14>v" "\\~W1_14v"
"~W1<13>v" "\\~W1_13v"
"~W1<12>v" "\\~W1_12v"
"~W1<11>v" "\\~W1_11v"
"~W1<10>v" "\\~W1_10v"
"~W1<9>v" "\\~W1_9v"
"~W1<8>v" "\\~W1_8v"
"~W1<7>v" "\\~W1_7v"
"~W1<6>v" "\\~W1_6v"
"~W1<5>v" "\\~W1_5v"
"~W1<4>v" "\\~W1_4v"
"~W1<3>v" "\\~W1_3v"
"~W1<2>v" "\\~W1_2v"
"~W1<1>v" "\\~W1_1v"
"~W1<0>v" "\\~W1_0v"
"~W0<31>v" "\\~W0_31v"
"~W0<30>v" "\\~W0_30v"
"~W0<29>v" "\\~W0_29v"
"~W0<28>v" "\\~W0_28v"
"~W0<27>v" "\\~W0_27v"
"~W0<26>v" "\\~W0_26v"
"~W0<25>v" "\\~W0_25v"
"~W0<24>v" "\\~W0_24v"
"~W0<23>v" "\\~W0_23v"
"~W0<22>v" "\\~W0_22v"
"~W0<21>v" "\\~W0_21v"
"~W0<20>v" "\\~W0_20v"
"~W0<19>v" "\\~W0_19v"
"~W0<18>v" "\\~W0_18v"
"~W0<17>v" "\\~W0_17v"
"~W0<16>v" "\\~W0_16v"
"~W0<15>v" "\\~W0_15v"
"~W0<14>v" "\\~W0_14v"
"~W0<13>v" "\\~W0_13v"
"~W0<12>v" "\\~W0_12v"
"~W0<11>v" "\\~W0_11v"
"~W0<10>v" "\\~W0_10v"
"~W0<9>v" "\\~W0_9v"
"~W0<8>v" "\\~W0_8v"
"~W0<7>v" "\\~W0_7v"
"~W0<6>v" "\\~W0_6v"
"~W0<5>v" "\\~W0_5v"
"~W0<4>v" "\\~W0_4v"
"~W0<3>v" "\\~W0_3v"
"~W0<2>v" "\\~W0_2v"
"~W0<1>v" "\\~W0_1v"
"~W0<0>v" "\\~W0_0v"
"~W_Addr<6>v" "\\~W_Addr_6v"
"~W_Addr<5>v" "\\~W_Addr_5v"
"~W_Addr<4>v" "\\~W_Addr_4v"
"~W_Addr<3>v" "\\~W_Addr_3v"
"~W_Addr<2>v" "\\~W_Addr_2v"
"~W_Addr<1>v" "\\~W_Addr_1v"
"~W_Addr<0>v" "\\~W_Addr_0v"
"~R0<31>v" "\\~R0_31v"
"~R0<30>v" "\\~R0_30v"
"~R0<29>v" "\\~R0_29v"
"~R0<28>v" "\\~R0_28v"
"~R0<27>v" "\\~R0_27v"
"~R0<26>v" "\\~R0_26v"
"~R0<25>v" "\\~R0_25v"
"~R0<24>v" "\\~R0_24v"
"~R0<23>v" "\\~R0_23v"
"~R0<22>v" "\\~R0_22v"
"~R0<21>v" "\\~R0_21v"
"~R0<20>v" "\\~R0_20v"
"~R0<19>v" "\\~R0_19v"
"~R0<18>v" "\\~R0_18v"
"~R0<17>v" "\\~R0_17v"
"~R0<16>v" "\\~R0_16v"
"~R0<15>v" "\\~R0_15v"
"~R0<14>v" "\\~R0_14v"
"~R0<13>v" "\\~R0_13v"
"~R0<12>v" "\\~R0_12v"
"~R0<11>v" "\\~R0_11v"
"~R0<10>v" "\\~R0_10v"
"~R0<9>v" "\\~R0_9v"
"~R0<8>v" "\\~R0_8v"
"~R0<7>v" "\\~R0_7v"
"~R0<6>v" "\\~R0_6v"
"~R0<5>v" "\\~R0_5v"
"~R0<4>v" "\\~R0_4v"
"~R0<3>v" "\\~R0_3v"
"~R0<2>v" "\\~R0_2v"
"~R0<1>v" "\\~R0_1v"
"~R0<0>v" "\\~R0_0v"
"W1T<31>v" "W1T_31v"
"W1T<30>v" "W1T_30v"
"W1T<29>v" "W1T_29v"
"W1T<28>v" "W1T_28v"
"W1T<27>v" "W1T_27v"
"W1T<26>v" "W1T_26v"
"W1T<25>v" "W1T_25v"
"W1T<24>v" "W1T_24v"
"W1T<23>v" "W1T_23v"
"W1T<22>v" "W1T_22v"
"W1T<21>v" "W1T_21v"
"W1T<20>v" "W1T_20v"
"W1T<19>v" "W1T_19v"
"W1T<18>v" "W1T_18v"
"W1T<17>v" "W1T_17v"
"W1T<16>v" "W1T_16v"
"W1T<15>v" "W1T_15v"
"W1T<14>v" "W1T_14v"
"W1T<13>v" "W1T_13v"
"W1T<12>v" "W1T_12v"
"W1T<11>v" "W1T_11v"
"W1T<10>v" "W1T_10v"
"W1T<9>v" "W1T_9v"
"W1T<8>v" "W1T_8v"
"W1T<7>v" "W1T_7v"
"W1T<6>v" "W1T_6v"
"W1T<5>v" "W1T_5v"
"W1T<4>v" "W1T_4v"
"W1T<3>v" "W1T_3v"
"W1T<2>v" "W1T_2v"
"W1T<1>v" "W1T_1v"
"W1T<0>v" "W1T_0v"
"~Resetv" "\\~Resetv"
"GoRTv" "GoRTv"
"~R_ackv" "\\~R_ackv"
"R1T<31>v" "R1T_31v"
"R1T<30>v" "R1T_30v"
"R1T<29>v" "R1T_29v"
"R1T<28>v" "R1T_28v"
"R1T<27>v" "R1T_27v"
"R1T<26>v" "R1T_26v"
"R1T<25>v" "R1T_25v"
"R1T<24>v" "R1T_24v"
"R1T<23>v" "R1T_23v"
"R1T<22>v" "R1T_22v"
"R1T<21>v" "R1T_21v"
"R1T<20>v" "R1T_20v"
"R1T<19>v" "R1T_19v"
"R1T<18>v" "R1T_18v"
"R1T<17>v" "R1T_17v"
"R1T<16>v" "R1T_16v"
"R1T<15>v" "R1T_15v"
"R1T<14>v" "R1T_14v"
"R1T<13>v" "R1T_13v"
"R1T<12>v" "R1T_12v"
"R1T<11>v" "R1T_11v"
"R1T<10>v" "R1T_10v"
"R1T<9>v" "R1T_9v"
"R1T<8>v" "R1T_8v"
"R1T<7>v" "R1T_7v"
"R1T<6>v" "R1T_6v"
"R1T<5>v" "R1T_5v"
"R1T<4>v" "R1T_4v"
"R1T<3>v" "R1T_3v"
"R1T<2>v" "R1T_2v"
"R1T<1>v" "R1T_1v"
"R1T<0>v" "R1T_0v"
"GoWTv" "GoWTv"
"~R_Addr<6>v" "\\~R_Addr_6v"
"~R_Addr<5>v" "\\~R_Addr_5v"
"~R_Addr<4>v" "\\~R_Addr_4v"
"~R_Addr<3>v" "\\~R_Addr_3v"
"~R_Addr<2>v" "\\~R_Addr_2v"
"~R_Addr<1>v" "\\~R_Addr_1v"
"~R_Addr<0>v" "\\~R_Addr_0v"
"KReTv" "KReTv"
"KWeTv" "KWeTv"
"~W_ackv" "\\~W_ackv"
"~GoWv" "\\~GoWv"
"W_AddrT<6>v" "W_AddrT_6v"
"W_AddrT<5>v" "W_AddrT_5v"
"W_AddrT<4>v" "W_AddrT_4v"
"W_AddrT<3>v" "W_AddrT_3v"
"W_AddrT<2>v" "W_AddrT_2v"
"W_AddrT<1>v" "W_AddrT_1v"
"W_AddrT<0>v" "W_AddrT_0v"
"R0T<31>v" "R0T_31v"
"R0T<30>v" "R0T_30v"
"R0T<29>v" "R0T_29v"
"R0T<28>v" "R0T_28v"
"R0T<27>v" "R0T_27v"
"R0T<26>v" "R0T_26v"
"R0T<25>v" "R0T_25v"
"R0T<24>v" "R0T_24v"
"R0T<23>v" "R0T_23v"
"R0T<22>v" "R0T_22v"
"R0T<21>v" "R0T_21v"
"R0T<20>v" "R0T_20v"
"R0T<19>v" "R0T_19v"
"R0T<18>v" "R0T_18v"
"R0T<17>v" "R0T_17v"
"R0T<16>v" "R0T_16v"
"R0T<15>v" "R0T_15v"
"R0T<14>v" "R0T_14v"
"R0T<13>v" "R0T_13v"
"R0T<12>v" "R0T_12v"
"R0T<11>v" "R0T_11v"
"R0T<10>v" "R0T_10v"
"R0T<9>v" "R0T_9v"
"R0T<8>v" "R0T_8v"
"R0T<7>v" "R0T_7v"
"R0T<6>v" "R0T_6v"
"R0T<5>v" "R0T_5v"
"R0T<4>v" "R0T_4v"
"R0T<3>v" "R0T_3v"
"R0T<2>v" "R0T_2v"
"R0T<1>v" "R0T_1v"
"R0T<0>v" "R0T_0v"
"R_AddrT<6>v" "R_AddrT_6v"
"R_AddrT<5>v" "R_AddrT_5v"
"R_AddrT<4>v" "R_AddrT_4v"
"R_AddrT<3>v" "R_AddrT_3v"
"R_AddrT<2>v" "R_AddrT_2v"
"R_AddrT<1>v" "R_AddrT_1v"
"R_AddrT<0>v" "R_AddrT_0v"
"W0T<31>v" "W0T_31v"
"W0T<30>v" "W0T_30v"
"W0T<29>v" "W0T_29v"
"W0T<28>v" "W0T_28v"
"W0T<27>v" "W0T_27v"
"W0T<26>v" "W0T_26v"
"W0T<25>v" "W0T_25v"
"W0T<24>v" "W0T_24v"
"W0T<23>v" "W0T_23v"
"W0T<22>v" "W0T_22v"
"W0T<21>v" "W0T_21v"
"W0T<20>v" "W0T_20v"
"W0T<19>v" "W0T_19v"
"W0T<18>v" "W0T_18v"
"W0T<17>v" "W0T_17v"
"W0T<16>v" "W0T_16v"
"W0T<15>v" "W0T_15v"
"W0T<14>v" "W0T_14v"
"W0T<13>v" "W0T_13v"
"W0T<12>v" "W0T_12v"
"W0T<11>v" "W0T_11v"
"W0T<10>v" "W0T_10v"
"W0T<9>v" "W0T_9v"
"W0T<8>v" "W0T_8v"
"W0T<7>v" "W0T_7v"
"W0T<6>v" "W0T_6v"
"W0T<5>v" "W0T_5v"
"W0T<4>v" "W0T_4v"
"W0T<3>v" "W0T_3v"
"W0T<2>v" "W0T_2v"
"W0T<1>v" "W0T_1v"
"W0T<0>v" "W0T_0v"
"gnd!v" "0v"
"vdd!v" "vdd!v"
"vcc!v" "vcc!v"
