HEADER
"PSFversion" "1.00"
"I59<3>v" "I59_3v"
"I59<2>v" "I59_2v"
"I59<1>v" "I59_1v"
"I59<0>v" "I59_0v"
"I33<3>v" "I33_3v"
"I33<2>v" "I33_2v"
"I33<1>v" "I33_1v"
"I33<0>v" "I33_0v"
"I34<3>v" "I34_3v"
"I34<2>v" "I34_2v"
"I34<1>v" "I34_1v"
"I34<0>v" "I34_0v"
"I60<3>v" "I60_3v"
"I60<2>v" "I60_2v"
"I60<1>v" "I60_1v"
"I60<0>v" "I60_0v"
"I51<31>v" "I51_31v"
"I51<30>v" "I51_30v"
"I51<29>v" "I51_29v"
"I51<28>v" "I51_28v"
"I51<27>v" "I51_27v"
"I51<26>v" "I51_26v"
"I51<25>v" "I51_25v"
"I51<24>v" "I51_24v"
"I51<23>v" "I51_23v"
"I51<22>v" "I51_22v"
"I51<21>v" "I51_21v"
"I51<20>v" "I51_20v"
"I51<19>v" "I51_19v"
"I51<18>v" "I51_18v"
"I51<17>v" "I51_17v"
"I51<16>v" "I51_16v"
"I51<15>v" "I51_15v"
"I51<14>v" "I51_14v"
"I51<13>v" "I51_13v"
"I51<12>v" "I51_12v"
"I51<11>v" "I51_11v"
"I51<10>v" "I51_10v"
"I51<9>v" "I51_9v"
"I51<8>v" "I51_8v"
"I51<7>v" "I51_7v"
"I51<6>v" "I51_6v"
"I51<5>v" "I51_5v"
"I51<4>v" "I51_4v"
"I51<3>v" "I51_3v"
"I51<2>v" "I51_2v"
"I51<1>v" "I51_1v"
"I51<0>v" "I51_0v"
"I42<31>v" "I42_31v"
"I42<30>v" "I42_30v"
"I42<29>v" "I42_29v"
"I42<28>v" "I42_28v"
"I42<27>v" "I42_27v"
"I42<26>v" "I42_26v"
"I42<25>v" "I42_25v"
"I42<24>v" "I42_24v"
"I42<23>v" "I42_23v"
"I42<22>v" "I42_22v"
"I42<21>v" "I42_21v"
"I42<20>v" "I42_20v"
"I42<19>v" "I42_19v"
"I42<18>v" "I42_18v"
"I42<17>v" "I42_17v"
"I42<16>v" "I42_16v"
"I42<15>v" "I42_15v"
"I42<14>v" "I42_14v"
"I42<13>v" "I42_13v"
"I42<12>v" "I42_12v"
"I42<11>v" "I42_11v"
"I42<10>v" "I42_10v"
"I42<9>v" "I42_9v"
"I42<8>v" "I42_8v"
"I42<7>v" "I42_7v"
"I42<6>v" "I42_6v"
"I42<5>v" "I42_5v"
"I42<4>v" "I42_4v"
"I42<3>v" "I42_3v"
"I42<2>v" "I42_2v"
"I42<1>v" "I42_1v"
"I42<0>v" "I42_0v"
"I19<31>v" "I19_31v"
"I19<30>v" "I19_30v"
"I19<29>v" "I19_29v"
"I19<28>v" "I19_28v"
"I19<27>v" "I19_27v"
"I19<26>v" "I19_26v"
"I19<25>v" "I19_25v"
"I19<24>v" "I19_24v"
"I19<23>v" "I19_23v"
"I19<22>v" "I19_22v"
"I19<21>v" "I19_21v"
"I19<20>v" "I19_20v"
"I19<19>v" "I19_19v"
"I19<18>v" "I19_18v"
"I19<17>v" "I19_17v"
"I19<16>v" "I19_16v"
"I19<15>v" "I19_15v"
"I19<14>v" "I19_14v"
"I19<13>v" "I19_13v"
"I19<12>v" "I19_12v"
"I19<11>v" "I19_11v"
"I19<10>v" "I19_10v"
"I19<9>v" "I19_9v"
"I19<8>v" "I19_8v"
"I19<7>v" "I19_7v"
"I19<6>v" "I19_6v"
"I19<5>v" "I19_5v"
"I19<4>v" "I19_4v"
"I19<3>v" "I19_3v"
"I19<2>v" "I19_2v"
"I19<1>v" "I19_1v"
"I19<0>v" "I19_0v"
"I10<31>v" "I10_31v"
"I10<30>v" "I10_30v"
"I10<29>v" "I10_29v"
"I10<28>v" "I10_28v"
"I10<27>v" "I10_27v"
"I10<26>v" "I10_26v"
"I10<25>v" "I10_25v"
"I10<24>v" "I10_24v"
"I10<23>v" "I10_23v"
"I10<22>v" "I10_22v"
"I10<21>v" "I10_21v"
"I10<20>v" "I10_20v"
"I10<19>v" "I10_19v"
"I10<18>v" "I10_18v"
"I10<17>v" "I10_17v"
"I10<16>v" "I10_16v"
"I10<15>v" "I10_15v"
"I10<14>v" "I10_14v"
"I10<13>v" "I10_13v"
"I10<12>v" "I10_12v"
"I10<11>v" "I10_11v"
"I10<10>v" "I10_10v"
"I10<9>v" "I10_9v"
"I10<8>v" "I10_8v"
"I10<7>v" "I10_7v"
"I10<6>v" "I10_6v"
"I10<5>v" "I10_5v"
"I10<4>v" "I10_4v"
"I10<3>v" "I10_3v"
"I10<2>v" "I10_2v"
"I10<1>v" "I10_1v"
"I10<0>v" "I10_0v"
"I46<31>v" "I46_31v"
"I59<3>n I59<2>n I59<1>n I59<0>n I33<3>n I33<2>n I33<1>n I33<0>n I34<3>n I34<2>n I34<1>n I34<0>n I60<3>n I60<2>n I60<1>n I60<0>n I32n I37n I41n I45n I50n I54n I58n I63n I29n I26n I22n I18n I13n I9n I5n I2n I51<31>n I51<30>n I51<29>n I51<28>n I51<27>n I51<26>n I51<25>n I51<24>n I51<23>n I51<22>n I51<21>n I51<20>n I51<19>n I51<18>n I51<17>n I51<16>n I51<15>n I51<14>n I51<13>n I51<12>n I51<11>n I51<10>n I51<9>n I51<8>n I51<7>n I51<6>n I51<5>n I51<4>n I51<3>n I51<2>n I51<1>n I51<0>n I42<31>n I42<30>n I42<29>n I42<28>n I42<27>n I42<26>n I42<25>n I42<24>n I42<23>n I42<22>n I42<21>n I42<20>n I42<19>n I42<18>n I42<17>n I42<16>n I42<15>n I42<14>n I42<13>n I42<12>n I42<11>n I42<10>n I42<9>n I42<8>n I42<7>n I42<6>n I42<5>n I42<4>n I42<3>n I42<2>n I42<1>n I42<0>n I19<31>n I19<30>n I19<29>n I19<28>n I19<27>n I19<26>n I19<25>n I19<24>n I19<23>n I19<22>n I19<21>n I19<20>n I19<19>n I19<18>n I19<17>n I19<16>n I19<15>n I19<14>n I19<13>n I19<12>n I19<11>n I19<10>n I19<9>n I19<8>n I19<7>n I19<6>n I19<5>n I19<4>n I19<3>n I19<2>n I19<1>n I19<0>n I10<31>n I10<30>n I10<29>n I10<28>n I10<27>n I10<26>n I10<25>n I10<24>n I10<23>n I10<22>n I10<21>n I10<20>n I10<19>n I10<18>n I10<17>n I10<16>n I10<15>n I10<14>n I10<13>n I10<12>n I10<11>n I10<10>n I10<9>n I10<8>n I10<7>n I10<6>n I10<5>n I10<4>n I10<3>n I10<2>n I10<1>n I10<0>n" "inv_1x"
"I46<30>v" "I46_30v"
"I46<29>v" "I46_29v"
"I46<28>v" "I46_28v"
"I46<27>v" "I46_27v"
"I46<26>v" "I46_26v"
"I46<25>v" "I46_25v"
"I46<24>v" "I46_24v"
"I46<23>v" "I46_23v"
"I46<22>v" "I46_22v"
"I46<21>v" "I46_21v"
"I46<20>v" "I46_20v"
"I46<19>v" "I46_19v"
"I46<18>v" "I46_18v"
"I46<17>v" "I46_17v"
"I46<16>v" "I46_16v"
"I46<15>v" "I46_15v"
"I46<14>v" "I46_14v"
"I46<13>v" "I46_13v"
"I46<12>v" "I46_12v"
"I46<11>v" "I46_11v"
"I46<10>v" "I46_10v"
"I46<9>v" "I46_9v"
"I46<8>v" "I46_8v"
"I46<7>v" "I46_7v"
"I46<6>v" "I46_6v"
"I46<5>v" "I46_5v"
"I46<4>v" "I46_4v"
"I46<3>v" "I46_3v"
"I46<2>v" "I46_2v"
"I46<1>v" "I46_1v"
"I46<0>v" "I46_0v"
"I14<31>v" "I14_31v"
"I14<30>v" "I14_30v"
"I14<29>v" "I14_29v"
"I14<28>v" "I14_28v"
"I14<27>v" "I14_27v"
"I14<26>v" "I14_26v"
"I14<25>v" "I14_25v"
"I14<24>v" "I14_24v"
"I14<23>v" "I14_23v"
"I14<22>v" "I14_22v"
"I14<21>v" "I14_21v"
"I14<20>v" "I14_20v"
"I14<19>v" "I14_19v"
"I14<18>v" "I14_18v"
"I14<17>v" "I14_17v"
"I14<16>v" "I14_16v"
"I14<15>v" "I14_15v"
"I14<14>v" "I14_14v"
"I14<13>v" "I14_13v"
"I14<12>v" "I14_12v"
"I14<11>v" "I14_11v"
"I14<10>v" "I14_10v"
"I14<9>v" "I14_9v"
"I14<8>v" "I14_8v"
"I14<7>v" "I14_7v"
"I14<6>v" "I14_6v"
"I14<5>v" "I14_5v"
"I14<4>v" "I14_4v"
"I14<3>v" "I14_3v"
"I14<2>v" "I14_2v"
"I14<1>v" "I14_1v"
"I14<0>v" "I14_0v"
"I46<31>n I46<30>n I46<29>n I46<28>n I46<27>n I46<26>n I46<25>n I46<24>n I46<23>n I46<22>n I46<21>n I46<20>n I46<19>n I46<18>n I46<17>n I46<16>n I46<15>n I46<14>n I46<13>n I46<12>n I46<11>n I46<10>n I46<9>n I46<8>n I46<7>n I46<6>n I46<5>n I46<4>n I46<3>n I46<2>n I46<1>n I46<0>n I14<31>n I14<30>n I14<29>n I14<28>n I14<27>n I14<26>n I14<25>n I14<24>n I14<23>n I14<22>n I14<21>n I14<20>n I14<19>n I14<18>n I14<17>n I14<16>n I14<15>n I14<14>n I14<13>n I14<12>n I14<11>n I14<10>n I14<9>n I14<8>n I14<7>n I14<6>n I14<5>n I14<4>n I14<3>n I14<2>n I14<1>n I14<0>n" "nand_1x"
"I30n I35n I38n I39n I43n I48n I52n I55n I56n I61n I23n I6n I27n I24n I20n I16n I11n I7n I3n I0n" "TH44"
"I31n I36n I40n I44n I47n I49n I53n I57n I62n I15n I4n I8n I12n I17n I1n I21n I25n I28n" "TH22"
"KRev" ":1v"
"KRvv" ":2v"
"KWev" ":3v"
"KWvv" ":4v"
"R0<31>v" ":5v"
"R0<30>v" ":6v"
"R0<29>v" ":7v"
"R0<28>v" ":8v"
"R0<27>v" ":9v"
"R0<26>v" ":10v"
"R0<25>v" ":11v"
"R0<24>v" ":12v"
"R0<23>v" ":13v"
"R0<22>v" ":14v"
"R0<21>v" ":15v"
"R0<20>v" ":16v"
"R0<19>v" ":17v"
"R0<18>v" ":18v"
"R0<17>v" ":19v"
"R0<16>v" ":20v"
"R0<15>v" ":21v"
"R0<14>v" ":22v"
"R0<13>v" ":23v"
"R0<12>v" ":24v"
"R0<11>v" ":25v"
"R0<10>v" ":26v"
"R0<9>v" ":27v"
"R0<8>v" ":28v"
"R0<7>v" ":29v"
"R0<6>v" ":30v"
"R0<5>v" ":31v"
"R0<4>v" ":32v"
"R0<3>v" ":33v"
"R0<2>v" ":34v"
"R0<1>v" ":35v"
"R0<0>v" ":36v"
"R1<31>v" ":37v"
"R1<30>v" ":38v"
"R1<29>v" ":39v"
"R1<28>v" ":40v"
"R1<27>v" ":41v"
"R1<26>v" ":42v"
"R1<25>v" ":43v"
"R1<24>v" ":44v"
"R1<23>v" ":45v"
"R1<22>v" ":46v"
"R1<21>v" ":47v"
"R1<20>v" ":48v"
"R1<19>v" ":49v"
"R1<18>v" ":50v"
"R1<17>v" ":51v"
"R1<16>v" ":52v"
"R1<15>v" ":53v"
"R1<14>v" ":54v"
"R1<13>v" ":55v"
"R1<12>v" ":56v"
"R1<11>v" ":57v"
"R1<10>v" ":58v"
"R1<9>v" ":59v"
"R1<8>v" ":60v"
"R1<7>v" ":61v"
"R1<6>v" ":62v"
"R1<5>v" ":63v"
"R1<4>v" ":64v"
"R1<3>v" ":65v"
"R1<2>v" ":66v"
"R1<1>v" ":67v"
"R1<0>v" ":68v"
"Re2<7>v" ":69v"
"Re2<6>v" ":70v"
"Re2<5>v" ":71v"
"Re2<4>v" ":72v"
"Re2<3>v" ":73v"
"Re2<2>v" ":74v"
"Re2<1>v" ":75v"
"Re2<0>v" ":76v"
"W0<31>v" ":77v"
"W0<30>v" ":78v"
"W0<29>v" ":79v"
"W0<28>v" ":80v"
"W0<27>v" ":81v"
"W0<26>v" ":82v"
"W0<25>v" ":83v"
"W0<24>v" ":84v"
"W0<23>v" ":85v"
"W0<22>v" ":86v"
"W0<21>v" ":87v"
"W0<20>v" ":88v"
"W0<19>v" ":89v"
"W0<18>v" ":90v"
"W0<17>v" ":91v"
"W0<16>v" ":92v"
"W0<15>v" ":93v"
"W0<14>v" ":94v"
"W0<13>v" ":95v"
"W0<12>v" ":96v"
"W0<11>v" ":97v"
"W0<10>v" ":98v"
"W0<9>v" ":99v"
"W0<8>v" ":100v"
"W0<7>v" ":101v"
"W0<6>v" ":102v"
"W0<5>v" ":103v"
"W0<4>v" ":104v"
"W0<3>v" ":105v"
"W0<2>v" ":106v"
"W0<1>v" ":107v"
"W0<0>v" ":108v"
"W1<31>v" ":109v"
"W1<30>v" ":110v"
"W1<29>v" ":111v"
"W1<28>v" ":112v"
"W1<27>v" ":113v"
"W1<26>v" ":114v"
"W1<25>v" ":115v"
"W1<24>v" ":116v"
"W1<23>v" ":117v"
"W1<22>v" ":118v"
"W1<21>v" ":119v"
"W1<20>v" ":120v"
"W1<19>v" ":121v"
"W1<18>v" ":122v"
"W1<17>v" ":123v"
"W1<16>v" ":124v"
"W1<15>v" ":125v"
"W1<14>v" ":126v"
"W1<13>v" ":127v"
"W1<12>v" ":128v"
"W1<11>v" ":129v"
"W1<10>v" ":130v"
"W1<9>v" ":131v"
"W1<8>v" ":132v"
"W1<7>v" ":133v"
"W1<6>v" ":134v"
"W1<5>v" ":135v"
"W1<4>v" ":136v"
"W1<3>v" ":137v"
"W1<2>v" ":138v"
"W1<1>v" ":139v"
"W1<0>v" ":140v"
"We<7>v" ":141v"
"We<6>v" ":142v"
"We<5>v" ":143v"
"We<4>v" ":144v"
"We<3>v" ":145v"
"We<2>v" ":146v"
"We<1>v" ":147v"
"We<0>v" ":148v"
"~R0<31>v" ":149v"
"~R0<30>v" ":150v"
"~R0<29>v" ":151v"
"~R0<28>v" ":152v"
"~R0<27>v" ":153v"
"~R0<26>v" ":154v"
"~R0<25>v" ":155v"
"~R0<24>v" ":156v"
"~R0<23>v" ":157v"
"~R0<22>v" ":158v"
"~R0<21>v" ":159v"
"~R0<20>v" ":160v"
"~R0<19>v" ":161v"
"~R0<18>v" ":162v"
"~R0<17>v" ":163v"
"~R0<16>v" ":164v"
"~R0<15>v" ":165v"
"~R0<14>v" ":166v"
"~R0<13>v" ":167v"
"~R0<12>v" ":168v"
"~R0<11>v" ":169v"
"~R0<10>v" ":170v"
"~R0<9>v" ":171v"
"~R0<8>v" ":172v"
"~R0<7>v" ":173v"
"~R0<6>v" ":174v"
"~R0<5>v" ":175v"
"~R0<4>v" ":176v"
"~R0<3>v" ":177v"
"~R0<2>v" ":178v"
"~R0<1>v" ":179v"
"~R0<0>v" ":180v"
"~R1<31>v" ":181v"
"~R1<30>v" ":182v"
"~R1<29>v" ":183v"
"~R1<28>v" ":184v"
"~R1<27>v" ":185v"
"~R1<26>v" ":186v"
"~R1<25>v" ":187v"
"~R1<24>v" ":188v"
"~R1<23>v" ":189v"
"~R1<22>v" ":190v"
"~R1<21>v" ":191v"
"~R1<20>v" ":192v"
"~R1<19>v" ":193v"
"~R1<18>v" ":194v"
"~R1<17>v" ":195v"
"~R1<16>v" ":196v"
"~R1<15>v" ":197v"
"~R1<14>v" ":198v"
"~R1<13>v" ":199v"
"~R1<12>v" ":200v"
"~R1<11>v" ":201v"
"~R1<10>v" ":202v"
"~R1<9>v" ":203v"
"~R1<8>v" ":204v"
"~R1<7>v" ":205v"
"~R1<6>v" ":206v"
"~R1<5>v" ":207v"
"~R1<4>v" ":208v"
"~R1<3>v" ":209v"
"~R1<2>v" ":210v"
"~R1<1>v" ":211v"
"~R1<0>v" ":212v"
"~W0<31>v" ":213v"
"~W0<30>v" ":214v"
"~W0<29>v" ":215v"
"~W0<28>v" ":216v"
"~W0<27>v" ":217v"
"~W0<26>v" ":218v"
"~W0<25>v" ":219v"
"~W0<24>v" ":220v"
"~W0<23>v" ":221v"
"~W0<22>v" ":222v"
"~W0<21>v" ":223v"
"~W0<20>v" ":224v"
"~W0<19>v" ":225v"
"~W0<18>v" ":226v"
"~W0<17>v" ":227v"
"~W0<16>v" ":228v"
"~W0<15>v" ":229v"
"~W0<14>v" ":230v"
"~W0<13>v" ":231v"
"~W0<12>v" ":232v"
"~W0<11>v" ":233v"
"~W0<10>v" ":234v"
"~W0<9>v" ":235v"
"~W0<8>v" ":236v"
"~W0<7>v" ":237v"
"~W0<6>v" ":238v"
"~W0<5>v" ":239v"
"~W0<4>v" ":240v"
"~W0<3>v" ":241v"
"~W0<2>v" ":242v"
"~W0<1>v" ":243v"
"~W0<0>v" ":244v"
"~W1<31>v" ":245v"
"~W1<30>v" ":246v"
"~W1<29>v" ":247v"
"~W1<28>v" ":248v"
"~W1<27>v" ":249v"
"~W1<26>v" ":250v"
"~W1<25>v" ":251v"
"~W1<24>v" ":252v"
"~W1<23>v" ":253v"
"~W1<22>v" ":254v"
"~W1<21>v" ":255v"
"~W1<20>v" ":256v"
"~W1<19>v" ":257v"
"~W1<18>v" ":258v"
"~W1<17>v" ":259v"
"~W1<16>v" ":260v"
"~W1<15>v" ":261v"
"~W1<14>v" ":262v"
"~W1<13>v" ":263v"
"~W1<12>v" ":264v"
"~W1<11>v" ":265v"
"~W1<10>v" ":266v"
"~W1<9>v" ":267v"
"~W1<8>v" ":268v"
"~W1<7>v" ":269v"
"~W1<6>v" ":270v"
"~W1<5>v" ":271v"
"~W1<4>v" ":272v"
"~W1<3>v" ":273v"
"~W1<2>v" ":274v"
"~W1<1>v" ":275v"
"~W1<0>v" ":276v"
