HEADER
"PSFversion" "1.00"
"I1n I0n" "NCSU_TechLib_FreePDK15_pfet_spectre"
"I3n" "TH22"
"Re2v" ":1v"
"Rev" ":2v"
"~R0v" ":3v"
"~R1v" ":4v"
