HEADER
"PSFversion" "1.00"
"Resetv" "Resetv"
"GoRv" "GoRv"
"JRi<31>v" "JRi_31v"
"JRi<30>v" "JRi_30v"
"JRi<29>v" "JRi_29v"
"JRi<28>v" "JRi_28v"
"JRi<27>v" "JRi_27v"
"JRi<26>v" "JRi_26v"
"JRi<25>v" "JRi_25v"
"JRi<24>v" "JRi_24v"
"JRi<23>v" "JRi_23v"
"JRi<22>v" "JRi_22v"
"JRi<21>v" "JRi_21v"
"JRi<20>v" "JRi_20v"
"JRi<19>v" "JRi_19v"
"JRi<18>v" "JRi_18v"
"JRi<17>v" "JRi_17v"
"JRi<16>v" "JRi_16v"
"JRi<15>v" "JRi_15v"
"JRi<14>v" "JRi_14v"
"JRi<13>v" "JRi_13v"
"JRi<12>v" "JRi_12v"
"JRi<11>v" "JRi_11v"
"JRi<10>v" "JRi_10v"
"JRi<9>v" "JRi_9v"
"JRi<8>v" "JRi_8v"
"JRi<7>v" "JRi_7v"
"JRi<6>v" "JRi_6v"
"JRi<5>v" "JRi_5v"
"JRi<4>v" "JRi_4v"
"JRi<3>v" "JRi_3v"
"JRi<2>v" "JRi_2v"
"JRi<1>v" "JRi_1v"
"JRi<0>v" "JRi_0v"
"~W0<31>v" "\\~W0_31v"
"~W0<30>v" "\\~W0_30v"
"~W0<29>v" "\\~W0_29v"
"~W0<28>v" "\\~W0_28v"
"~W0<27>v" "\\~W0_27v"
"~W0<26>v" "\\~W0_26v"
"~W0<25>v" "\\~W0_25v"
"~W0<24>v" "\\~W0_24v"
"~W0<23>v" "\\~W0_23v"
"~W0<22>v" "\\~W0_22v"
"~W0<21>v" "\\~W0_21v"
"~W0<20>v" "\\~W0_20v"
"~W0<19>v" "\\~W0_19v"
"~W0<18>v" "\\~W0_18v"
"~W0<17>v" "\\~W0_17v"
"~W0<16>v" "\\~W0_16v"
"~W0<15>v" "\\~W0_15v"
"~W0<14>v" "\\~W0_14v"
"~W0<13>v" "\\~W0_13v"
"~W0<12>v" "\\~W0_12v"
"~W0<11>v" "\\~W0_11v"
"~W0<10>v" "\\~W0_10v"
"~W0<9>v" "\\~W0_9v"
"~W0<8>v" "\\~W0_8v"
"~W0<7>v" "\\~W0_7v"
"~W0<6>v" "\\~W0_6v"
"~W0<5>v" "\\~W0_5v"
"~W0<4>v" "\\~W0_4v"
"~W0<3>v" "\\~W0_3v"
"~W0<2>v" "\\~W0_2v"
"~W0<1>v" "\\~W0_1v"
"~W0<0>v" "\\~W0_0v"
"KRvv" "KRvv"
"JWi<31>v" "JWi_31v"
"JWi<30>v" "JWi_30v"
"JWi<29>v" "JWi_29v"
"JWi<28>v" "JWi_28v"
"JWi<27>v" "JWi_27v"
"JWi<26>v" "JWi_26v"
"JWi<25>v" "JWi_25v"
"JWi<24>v" "JWi_24v"
"JWi<23>v" "JWi_23v"
"JWi<22>v" "JWi_22v"
"JWi<21>v" "JWi_21v"
"JWi<20>v" "JWi_20v"
"JWi<19>v" "JWi_19v"
"JWi<18>v" "JWi_18v"
"JWi<17>v" "JWi_17v"
"JWi<16>v" "JWi_16v"
"JWi<15>v" "JWi_15v"
"JWi<14>v" "JWi_14v"
"JWi<13>v" "JWi_13v"
"JWi<12>v" "JWi_12v"
"JWi<11>v" "JWi_11v"
"JWi<10>v" "JWi_10v"
"JWi<9>v" "JWi_9v"
"JWi<8>v" "JWi_8v"
"JWi<7>v" "JWi_7v"
"JWi<6>v" "JWi_6v"
"JWi<5>v" "JWi_5v"
"JWi<4>v" "JWi_4v"
"JWi<3>v" "JWi_3v"
"JWi<2>v" "JWi_2v"
"JWi<1>v" "JWi_1v"
"JWi<0>v" "JWi_0v"
"Re2<7>v" "Re2_7v"
"Re2<6>v" "Re2_6v"
"Re2<5>v" "Re2_5v"
"Re2<4>v" "Re2_4v"
"Re2<3>v" "Re2_3v"
"Re2<2>v" "Re2_2v"
"Re2<1>v" "Re2_1v"
"Re2<0>v" "Re2_0v"
"KWvv" "KWvv"
"R_Addr<4>v" "R_Addr_4v"
"R_Addr<3>v" "R_Addr_3v"
"R_Addr<2>v" "R_Addr_2v"
"R_Addr<1>v" "R_Addr_1v"
"R_Addr<0>v" "R_Addr_0v"
"~R1<31>v" "\\~R1_31v"
"~R1<30>v" "\\~R1_30v"
"~R1<29>v" "\\~R1_29v"
"~R1<28>v" "\\~R1_28v"
"~R1<27>v" "\\~R1_27v"
"~R1<26>v" "\\~R1_26v"
"~R1<25>v" "\\~R1_25v"
"~R1<24>v" "\\~R1_24v"
"~R1<23>v" "\\~R1_23v"
"~R1<22>v" "\\~R1_22v"
"~R1<21>v" "\\~R1_21v"
"~R1<20>v" "\\~R1_20v"
"~R1<19>v" "\\~R1_19v"
"~R1<18>v" "\\~R1_18v"
"~R1<17>v" "\\~R1_17v"
"~R1<16>v" "\\~R1_16v"
"~R1<15>v" "\\~R1_15v"
"~R1<14>v" "\\~R1_14v"
"~R1<13>v" "\\~R1_13v"
"~R1<12>v" "\\~R1_12v"
"~R1<11>v" "\\~R1_11v"
"~R1<10>v" "\\~R1_10v"
"~R1<9>v" "\\~R1_9v"
"~R1<8>v" "\\~R1_8v"
"~R1<7>v" "\\~R1_7v"
"~R1<6>v" "\\~R1_6v"
"~R1<5>v" "\\~R1_5v"
"~R1<4>v" "\\~R1_4v"
"~R1<3>v" "\\~R1_3v"
"~R1<2>v" "\\~R1_2v"
"~R1<1>v" "\\~R1_1v"
"~R1<0>v" "\\~R1_0v"
"~R0<31>v" "\\~R0_31v"
"~R0<30>v" "\\~R0_30v"
"~R0<29>v" "\\~R0_29v"
"~R0<28>v" "\\~R0_28v"
"~R0<27>v" "\\~R0_27v"
"~R0<26>v" "\\~R0_26v"
"~R0<25>v" "\\~R0_25v"
"~R0<24>v" "\\~R0_24v"
"~R0<23>v" "\\~R0_23v"
"~R0<22>v" "\\~R0_22v"
"~R0<21>v" "\\~R0_21v"
"~R0<20>v" "\\~R0_20v"
"~R0<19>v" "\\~R0_19v"
"~R0<18>v" "\\~R0_18v"
"~R0<17>v" "\\~R0_17v"
"~R0<16>v" "\\~R0_16v"
"~R0<15>v" "\\~R0_15v"
"~R0<14>v" "\\~R0_14v"
"~R0<13>v" "\\~R0_13v"
"~R0<12>v" "\\~R0_12v"
"~R0<11>v" "\\~R0_11v"
"~R0<10>v" "\\~R0_10v"
"~R0<9>v" "\\~R0_9v"
"~R0<8>v" "\\~R0_8v"
"~R0<7>v" "\\~R0_7v"
"~R0<6>v" "\\~R0_6v"
"~R0<5>v" "\\~R0_5v"
"~R0<4>v" "\\~R0_4v"
"~R0<3>v" "\\~R0_3v"
"~R0<2>v" "\\~R0_2v"
"~R0<1>v" "\\~R0_1v"
"~R0<0>v" "\\~R0_0v"
"R0<31>v" "R0_31v"
"R0<30>v" "R0_30v"
"R0<29>v" "R0_29v"
"R0<28>v" "R0_28v"
"R0<27>v" "R0_27v"
"R0<26>v" "R0_26v"
"R0<25>v" "R0_25v"
"R0<24>v" "R0_24v"
"R0<23>v" "R0_23v"
"R0<22>v" "R0_22v"
"R0<21>v" "R0_21v"
"R0<20>v" "R0_20v"
"R0<19>v" "R0_19v"
"R0<18>v" "R0_18v"
"R0<17>v" "R0_17v"
"R0<16>v" "R0_16v"
"R0<15>v" "R0_15v"
"R0<14>v" "R0_14v"
"R0<13>v" "R0_13v"
"R0<12>v" "R0_12v"
"R0<11>v" "R0_11v"
"R0<10>v" "R0_10v"
"R0<9>v" "R0_9v"
"R0<8>v" "R0_8v"
"R0<7>v" "R0_7v"
"R0<6>v" "R0_6v"
"R0<5>v" "R0_5v"
"R0<4>v" "R0_4v"
"R0<3>v" "R0_3v"
"R0<2>v" "R0_2v"
"R0<1>v" "R0_1v"
"R0<0>v" "R0_0v"
"KRev" "KRev"
"Rev" "Rev"
"We<7>v" "We_7v"
"We<6>v" "We_6v"
"We<5>v" "We_5v"
"We<4>v" "We_4v"
"We<3>v" "We_3v"
"We<2>v" "We_2v"
"We<1>v" "We_1v"
"We<0>v" "We_0v"
"R1<31>v" "R1_31v"
"R1<30>v" "R1_30v"
"R1<29>v" "R1_29v"
"R1<28>v" "R1_28v"
"R1<27>v" "R1_27v"
"R1<26>v" "R1_26v"
"R1<25>v" "R1_25v"
"R1<24>v" "R1_24v"
"R1<23>v" "R1_23v"
"R1<22>v" "R1_22v"
"R1<21>v" "R1_21v"
"R1<20>v" "R1_20v"
"R1<19>v" "R1_19v"
"R1<18>v" "R1_18v"
"R1<17>v" "R1_17v"
"R1<16>v" "R1_16v"
"R1<15>v" "R1_15v"
"R1<14>v" "R1_14v"
"R1<13>v" "R1_13v"
"R1<12>v" "R1_12v"
"R1<11>v" "R1_11v"
"R1<10>v" "R1_10v"
"R1<9>v" "R1_9v"
"R1<8>v" "R1_8v"
"R1<7>v" "R1_7v"
"R1<6>v" "R1_6v"
"R1<5>v" "R1_5v"
"R1<4>v" "R1_4v"
"R1<3>v" "R1_3v"
"R1<2>v" "R1_2v"
"R1<1>v" "R1_1v"
"R1<0>v" "R1_0v"
"KWev" "KWev"
"W1<31>v" "W1_31v"
"W1<30>v" "W1_30v"
"W1<29>v" "W1_29v"
"W1<28>v" "W1_28v"
"W1<27>v" "W1_27v"
"W1<26>v" "W1_26v"
"W1<25>v" "W1_25v"
"W1<24>v" "W1_24v"
"W1<23>v" "W1_23v"
"W1<22>v" "W1_22v"
"W1<21>v" "W1_21v"
"W1<20>v" "W1_20v"
"W1<19>v" "W1_19v"
"W1<18>v" "W1_18v"
"W1<17>v" "W1_17v"
"W1<16>v" "W1_16v"
"W1<15>v" "W1_15v"
"W1<14>v" "W1_14v"
"W1<13>v" "W1_13v"
"W1<12>v" "W1_12v"
"W1<11>v" "W1_11v"
"W1<10>v" "W1_10v"
"W1<9>v" "W1_9v"
"W1<8>v" "W1_8v"
"W1<7>v" "W1_7v"
"W1<6>v" "W1_6v"
"W1<5>v" "W1_5v"
"W1<4>v" "W1_4v"
"W1<3>v" "W1_3v"
"W1<2>v" "W1_2v"
"W1<1>v" "W1_1v"
"W1<0>v" "W1_0v"
"W_Addr<4>v" "W_Addr_4v"
"W_Addr<3>v" "W_Addr_3v"
"W_Addr<2>v" "W_Addr_2v"
"W_Addr<1>v" "W_Addr_1v"
"W_Addr<0>v" "W_Addr_0v"
"~W1<31>v" "\\~W1_31v"
"~W1<30>v" "\\~W1_30v"
"~W1<29>v" "\\~W1_29v"
"~W1<28>v" "\\~W1_28v"
"~W1<27>v" "\\~W1_27v"
"~W1<26>v" "\\~W1_26v"
"~W1<25>v" "\\~W1_25v"
"~W1<24>v" "\\~W1_24v"
"~W1<23>v" "\\~W1_23v"
"~W1<22>v" "\\~W1_22v"
"~W1<21>v" "\\~W1_21v"
"~W1<20>v" "\\~W1_20v"
"~W1<19>v" "\\~W1_19v"
"~W1<18>v" "\\~W1_18v"
"~W1<17>v" "\\~W1_17v"
"~W1<16>v" "\\~W1_16v"
"~W1<15>v" "\\~W1_15v"
"~W1<14>v" "\\~W1_14v"
"~W1<13>v" "\\~W1_13v"
"~W1<12>v" "\\~W1_12v"
"~W1<11>v" "\\~W1_11v"
"~W1<10>v" "\\~W1_10v"
"~W1<9>v" "\\~W1_9v"
"~W1<8>v" "\\~W1_8v"
"~W1<7>v" "\\~W1_7v"
"~W1<6>v" "\\~W1_6v"
"~W1<5>v" "\\~W1_5v"
"~W1<4>v" "\\~W1_4v"
"~W1<3>v" "\\~W1_3v"
"~W1<2>v" "\\~W1_2v"
"~W1<1>v" "\\~W1_1v"
"~W1<0>v" "\\~W1_0v"
"GoWv" "GoWv"
"W0<31>v" "W0_31v"
"W0<30>v" "W0_30v"
"W0<29>v" "W0_29v"
"W0<28>v" "W0_28v"
"W0<27>v" "W0_27v"
"W0<26>v" "W0_26v"
"W0<25>v" "W0_25v"
"W0<24>v" "W0_24v"
"W0<23>v" "W0_23v"
"W0<22>v" "W0_22v"
"W0<21>v" "W0_21v"
"W0<20>v" "W0_20v"
"W0<19>v" "W0_19v"
"W0<18>v" "W0_18v"
"W0<17>v" "W0_17v"
"W0<16>v" "W0_16v"
"W0<15>v" "W0_15v"
"W0<14>v" "W0_14v"
"W0<13>v" "W0_13v"
"W0<12>v" "W0_12v"
"W0<11>v" "W0_11v"
"W0<10>v" "W0_10v"
"W0<9>v" "W0_9v"
"W0<8>v" "W0_8v"
"W0<7>v" "W0_7v"
"W0<6>v" "W0_6v"
"W0<5>v" "W0_5v"
"W0<4>v" "W0_4v"
"W0<3>v" "W0_3v"
"W0<2>v" "W0_2v"
"W0<1>v" "W0_1v"
"W0<0>v" "W0_0v"
