HEADER
"PSFversion" "1.00"
"I3n I1n" "inv_1x"
"M1n M0n M2n M5n M3n M4n" "NCSU_TechLib_FreePDK15_nfet_spectre"
"JRiv" ":1v"
"JWiv" ":2v"
"~R0v" ":3v"
"~R1v" ":4v"
"~W0v" ":5v"
"~W1v" ":6v"
