HEADER
"PSFversion" "1.00"
"~W1<3>v" "\\~W1_3v"
"~W1<2>v" "\\~W1_2v"
"~W1<1>v" "\\~W1_1v"
"~W1<0>v" "\\~W1_0v"
"JW<31>v" "JW_31v"
"JW<30>v" "JW_30v"
"JW<29>v" "JW_29v"
"JW<28>v" "JW_28v"
"JW<27>v" "JW_27v"
"JW<26>v" "JW_26v"
"JW<25>v" "JW_25v"
"JW<24>v" "JW_24v"
"JW<23>v" "JW_23v"
"JW<22>v" "JW_22v"
"JW<21>v" "JW_21v"
"JW<20>v" "JW_20v"
"JW<19>v" "JW_19v"
"JW<18>v" "JW_18v"
"JW<17>v" "JW_17v"
"JW<16>v" "JW_16v"
"JW<15>v" "JW_15v"
"JW<14>v" "JW_14v"
"JW<13>v" "JW_13v"
"JW<12>v" "JW_12v"
"JW<11>v" "JW_11v"
"JW<10>v" "JW_10v"
"JW<9>v" "JW_9v"
"JW<8>v" "JW_8v"
"JW<7>v" "JW_7v"
"JW<6>v" "JW_6v"
"JW<5>v" "JW_5v"
"JW<4>v" "JW_4v"
"JW<3>v" "JW_3v"
"JW<2>v" "JW_2v"
"JW<1>v" "JW_1v"
"JW<0>v" "JW_0v"
"JR<31>v" "JR_31v"
"JR<30>v" "JR_30v"
"JR<29>v" "JR_29v"
"JR<28>v" "JR_28v"
"JR<27>v" "JR_27v"
"JR<26>v" "JR_26v"
"JR<25>v" "JR_25v"
"JR<24>v" "JR_24v"
"JR<23>v" "JR_23v"
"JR<22>v" "JR_22v"
"JR<21>v" "JR_21v"
"JR<20>v" "JR_20v"
"JR<19>v" "JR_19v"
"JR<18>v" "JR_18v"
"JR<17>v" "JR_17v"
"JR<16>v" "JR_16v"
"JR<15>v" "JR_15v"
"JR<14>v" "JR_14v"
"JR<13>v" "JR_13v"
"JR<12>v" "JR_12v"
"JR<11>v" "JR_11v"
"JR<10>v" "JR_10v"
"JR<9>v" "JR_9v"
"JR<8>v" "JR_8v"
"JR<7>v" "JR_7v"
"JR<6>v" "JR_6v"
"JR<5>v" "JR_5v"
"JR<4>v" "JR_4v"
"JR<3>v" "JR_3v"
"JR<2>v" "JR_2v"
"JR<1>v" "JR_1v"
"JR<0>v" "JR_0v"
"~R0<31>v" "\\~R0_31v"
"~R0<30>v" "\\~R0_30v"
"~R0<29>v" "\\~R0_29v"
"~R0<28>v" "\\~R0_28v"
"~R0<27>v" "\\~R0_27v"
"~R0<26>v" "\\~R0_26v"
"~R0<25>v" "\\~R0_25v"
"~R0<24>v" "\\~R0_24v"
"~R0<23>v" "\\~R0_23v"
"~R0<22>v" "\\~R0_22v"
"~R0<21>v" "\\~R0_21v"
"~R0<20>v" "\\~R0_20v"
"~R0<19>v" "\\~R0_19v"
"~R0<18>v" "\\~R0_18v"
"~R0<17>v" "\\~R0_17v"
"~R0<16>v" "\\~R0_16v"
"~R0<15>v" "\\~R0_15v"
"~R0<14>v" "\\~R0_14v"
"~R0<13>v" "\\~R0_13v"
"~R0<12>v" "\\~R0_12v"
"~R0<11>v" "\\~R0_11v"
"~R0<10>v" "\\~R0_10v"
"~R0<9>v" "\\~R0_9v"
"~R0<8>v" "\\~R0_8v"
"~R0<7>v" "\\~R0_7v"
"~R0<6>v" "\\~R0_6v"
"~R0<5>v" "\\~R0_5v"
"~R0<4>v" "\\~R0_4v"
"~R0<3>v" "\\~R0_3v"
"~R0<2>v" "\\~R0_2v"
"~R0<1>v" "\\~R0_1v"
"~R0<0>v" "\\~R0_0v"
"~W1<31>v" "\\~W1_31v"
"~W1<30>v" "\\~W1_30v"
"~W1<29>v" "\\~W1_29v"
"~W1<28>v" "\\~W1_28v"
"~W1<27>v" "\\~W1_27v"
"~W1<26>v" "\\~W1_26v"
"~W1<25>v" "\\~W1_25v"
"~W1<24>v" "\\~W1_24v"
"~W1<23>v" "\\~W1_23v"
"~W1<22>v" "\\~W1_22v"
"~W1<21>v" "\\~W1_21v"
"~W1<20>v" "\\~W1_20v"
"~W1<19>v" "\\~W1_19v"
"~W1<18>v" "\\~W1_18v"
"~W1<17>v" "\\~W1_17v"
"~W1<16>v" "\\~W1_16v"
"~W1<15>v" "\\~W1_15v"
"~W1<14>v" "\\~W1_14v"
"~W1<13>v" "\\~W1_13v"
"~W1<12>v" "\\~W1_12v"
"~W1<11>v" "\\~W1_11v"
"~W1<10>v" "\\~W1_10v"
"~W1<9>v" "\\~W1_9v"
"~W1<8>v" "\\~W1_8v"
"~W1<7>v" "\\~W1_7v"
"~W1<6>v" "\\~W1_6v"
"~W1<5>v" "\\~W1_5v"
"~W1<4>v" "\\~W1_4v"
"~R1<31>v" "\\~R1_31v"
"~R1<30>v" "\\~R1_30v"
"~R1<29>v" "\\~R1_29v"
"~R1<28>v" "\\~R1_28v"
"~R1<27>v" "\\~R1_27v"
"~R1<26>v" "\\~R1_26v"
"~R1<25>v" "\\~R1_25v"
"~R1<24>v" "\\~R1_24v"
"~R1<23>v" "\\~R1_23v"
"~R1<22>v" "\\~R1_22v"
"~R1<21>v" "\\~R1_21v"
"~R1<20>v" "\\~R1_20v"
"~R1<19>v" "\\~R1_19v"
"~R1<18>v" "\\~R1_18v"
"~R1<17>v" "\\~R1_17v"
"~R1<16>v" "\\~R1_16v"
"~R1<15>v" "\\~R1_15v"
"~R1<14>v" "\\~R1_14v"
"~R1<13>v" "\\~R1_13v"
"~R1<12>v" "\\~R1_12v"
"~R1<11>v" "\\~R1_11v"
"~R1<10>v" "\\~R1_10v"
"~R1<9>v" "\\~R1_9v"
"~R1<8>v" "\\~R1_8v"
"~R1<7>v" "\\~R1_7v"
"~R1<6>v" "\\~R1_6v"
"~R1<5>v" "\\~R1_5v"
"~R1<4>v" "\\~R1_4v"
"~R1<3>v" "\\~R1_3v"
"~R1<2>v" "\\~R1_2v"
"~R1<1>v" "\\~R1_1v"
"~R1<0>v" "\\~R1_0v"
"~W0<23>v" "\\~W0_23v"
"~W0<22>v" "\\~W0_22v"
"~W0<21>v" "\\~W0_21v"
"~W0<20>v" "\\~W0_20v"
"~W0<19>v" "\\~W0_19v"
"~W0<18>v" "\\~W0_18v"
"~W0<17>v" "\\~W0_17v"
"~W0<16>v" "\\~W0_16v"
"~W0<15>v" "\\~W0_15v"
"~W0<14>v" "\\~W0_14v"
"~W0<13>v" "\\~W0_13v"
"~W0<12>v" "\\~W0_12v"
"~W0<11>v" "\\~W0_11v"
"~W0<10>v" "\\~W0_10v"
"~W0<9>v" "\\~W0_9v"
"~W0<8>v" "\\~W0_8v"
"~W0<27>v" "\\~W0_27v"
"~W0<26>v" "\\~W0_26v"
"~W0<25>v" "\\~W0_25v"
"~W0<24>v" "\\~W0_24v"
"~W0<31>v" "\\~W0_31v"
"~W0<30>v" "\\~W0_30v"
"~W0<29>v" "\\~W0_29v"
"~W0<28>v" "\\~W0_28v"
"~W0<7>v" "\\~W0_7v"
"~W0<6>v" "\\~W0_6v"
"~W0<5>v" "\\~W0_5v"
"~W0<4>v" "\\~W0_4v"
"~W0<3>v" "\\~W0_3v"
"~W0<2>v" "\\~W0_2v"
"~W0<1>v" "\\~W0_1v"
"~W0<0>v" "\\~W0_0v"
