HEADER
"PSFversion" "1.00"
"I11n I5n" "Decode_4to16"
"I16n I2n" "Decode_1to2"
"I17n I24n I3n I10n" "and4_1x"
"I19n I25n" "Decode_4to16_"
"I14n I15n I18n I20n I22n I23n I26n I13n I12n I9n I8n I6n I4n I0n I1n I27n" "nor4_1x"
"I21n I7n" "nand_1x"
"GoRv" ":1v"
"GoWv" ":2v"
"I_Read<4>v" ":3v"
"I_Read<3>v" ":4v"
"I_Read<2>v" ":5v"
"I_Read<1>v" ":6v"
"I_Read<0>v" ":7v"
"I_Write<4>v" ":8v"
"I_Write<3>v" ":9v"
"I_Write<2>v" ":10v"
"I_Write<1>v" ":11v"
"I_Write<0>v" ":12v"
"JRi<31>v" ":13v"
"JRi<30>v" ":14v"
"JRi<29>v" ":15v"
"JRi<28>v" ":16v"
"JRi<27>v" ":17v"
"JRi<26>v" ":18v"
"JRi<25>v" ":19v"
"JRi<24>v" ":20v"
"JRi<23>v" ":21v"
"JRi<22>v" ":22v"
"JRi<21>v" ":23v"
"JRi<20>v" ":24v"
"JRi<19>v" ":25v"
"JRi<18>v" ":26v"
"JRi<17>v" ":27v"
"JRi<16>v" ":28v"
"JRi<15>v" ":29v"
"JRi<14>v" ":30v"
"JRi<13>v" ":31v"
"JRi<12>v" ":32v"
"JRi<11>v" ":33v"
"JRi<10>v" ":34v"
"JRi<9>v" ":35v"
"JRi<8>v" ":36v"
"JRi<7>v" ":37v"
"JRi<6>v" ":38v"
"JRi<5>v" ":39v"
"JRi<4>v" ":40v"
"JRi<3>v" ":41v"
"JRi<2>v" ":42v"
"JRi<1>v" ":43v"
"JRi<0>v" ":44v"
"JWi<31>v" ":45v"
"JWi<30>v" ":46v"
"JWi<29>v" ":47v"
"JWi<28>v" ":48v"
"JWi<27>v" ":49v"
"JWi<26>v" ":50v"
"JWi<25>v" ":51v"
"JWi<24>v" ":52v"
"JWi<23>v" ":53v"
"JWi<22>v" ":54v"
"JWi<21>v" ":55v"
"JWi<20>v" ":56v"
"JWi<19>v" ":57v"
"JWi<18>v" ":58v"
"JWi<17>v" ":59v"
"JWi<16>v" ":60v"
"JWi<15>v" ":61v"
"JWi<14>v" ":62v"
"JWi<13>v" ":63v"
"JWi<12>v" ":64v"
"JWi<11>v" ":65v"
"JWi<10>v" ":66v"
"JWi<9>v" ":67v"
"JWi<8>v" ":68v"
"JWi<7>v" ":69v"
"JWi<6>v" ":70v"
"JWi<5>v" ":71v"
"JWi<4>v" ":72v"
"JWi<3>v" ":73v"
"JWi<2>v" ":74v"
"JWi<1>v" ":75v"
"JWi<0>v" ":76v"
"KRvv" ":77v"
"KWvv" ":78v"
"Resetv" ":79v"
