HEADER
"PSFversion" "1.00"
"I3<3>v" "I3_3v"
"I3<2>v" "I3_2v"
"I3<1>v" "I3_1v"
"I3<0>v" "I3_0v"
"I4<3>v" "I4_3v"
"I4<2>v" "I4_2v"
"I4<1>v" "I4_1v"
"I4<0>v" "I4_0v"
"I5<3>v" "I5_3v"
"I5<2>v" "I5_2v"
"I5<1>v" "I5_1v"
"I5<0>v" "I5_0v"
"I6<3>v" "I6_3v"
"I6<2>v" "I6_2v"
"I6<1>v" "I6_1v"
"I6<0>v" "I6_0v"
"I7<3>v" "I7_3v"
"I7<2>v" "I7_2v"
"I7<1>v" "I7_1v"
"I7<0>v" "I7_0v"
"I8<3>v" "I8_3v"
"I8<2>v" "I8_2v"
"I8<1>v" "I8_1v"
"I8<0>v" "I8_0v"
"I9<3>v" "I9_3v"
"I9<2>v" "I9_2v"
"I9<1>v" "I9_1v"
"I9<0>v" "I9_0v"
"I10<3>v" "I10_3v"
"I10<2>v" "I10_2v"
"I10<1>v" "I10_1v"
"I10<0>v" "I10_0v"
"I3<3>n I3<2>n I3<1>n I3<0>n I4<3>n I4<2>n I4<1>n I4<0>n I5<3>n I5<2>n I5<1>n I5<0>n I6<3>n I6<2>n I6<1>n I6<0>n I7<3>n I7<2>n I7<1>n I7<0>n I8<3>n I8<2>n I8<1>n I8<0>n I9<3>n I9<2>n I9<1>n I9<0>n I10<3>n I10<2>n I10<1>n I10<0>n" "_sub162"
"Rev" ":1v"
"Re2<7>v" ":2v"
"Re2<6>v" ":3v"
"Re2<5>v" ":4v"
"Re2<4>v" ":5v"
"Re2<3>v" ":6v"
"Re2<2>v" ":7v"
"Re2<1>v" ":8v"
"Re2<0>v" ":9v"
"~R0<31>v" ":10v"
"~R0<30>v" ":11v"
"~R0<29>v" ":12v"
"~R0<28>v" ":13v"
"~R0<27>v" ":14v"
"~R0<26>v" ":15v"
"~R0<25>v" ":16v"
"~R0<24>v" ":17v"
"~R0<23>v" ":18v"
"~R0<22>v" ":19v"
"~R0<21>v" ":20v"
"~R0<20>v" ":21v"
"~R0<19>v" ":22v"
"~R0<18>v" ":23v"
"~R0<17>v" ":24v"
"~R0<16>v" ":25v"
"~R0<15>v" ":26v"
"~R0<14>v" ":27v"
"~R0<13>v" ":28v"
"~R0<12>v" ":29v"
"~R0<11>v" ":30v"
"~R0<10>v" ":31v"
"~R0<9>v" ":32v"
"~R0<8>v" ":33v"
"~R0<7>v" ":34v"
"~R0<6>v" ":35v"
"~R0<5>v" ":36v"
"~R0<4>v" ":37v"
"~R0<3>v" ":38v"
"~R0<2>v" ":39v"
"~R0<1>v" ":40v"
"~R0<0>v" ":41v"
"~R1<31>v" ":42v"
"~R1<30>v" ":43v"
"~R1<29>v" ":44v"
"~R1<28>v" ":45v"
"~R1<27>v" ":46v"
"~R1<26>v" ":47v"
"~R1<25>v" ":48v"
"~R1<24>v" ":49v"
"~R1<23>v" ":50v"
"~R1<22>v" ":51v"
"~R1<21>v" ":52v"
"~R1<20>v" ":53v"
"~R1<19>v" ":54v"
"~R1<18>v" ":55v"
"~R1<17>v" ":56v"
"~R1<16>v" ":57v"
"~R1<15>v" ":58v"
"~R1<14>v" ":59v"
"~R1<13>v" ":60v"
"~R1<12>v" ":61v"
"~R1<11>v" ":62v"
"~R1<10>v" ":63v"
"~R1<9>v" ":64v"
"~R1<8>v" ":65v"
"~R1<7>v" ":66v"
"~R1<6>v" ":67v"
"~R1<5>v" ":68v"
"~R1<4>v" ":69v"
"~R1<3>v" ":70v"
"~R1<2>v" ":71v"
"~R1<1>v" ":72v"
"~R1<0>v" ":73v"
