HEADER
"PSFversion" "1.00"
"I0n I2n I6n I8n" "_sub60"
"I4n I1n" "Decode_2to4"
"I26<31>v" "I26_31v"
"I10n I11n" "nand4_1x"
"I26<30>v" "I26_30v"
"I26<29>v" "I26_29v"
"I26<28>v" "I26_28v"
"I26<27>v" "I26_27v"
"I26<26>v" "I26_26v"
"I26<25>v" "I26_25v"
"I26<24>v" "I26_24v"
"I26<23>v" "I26_23v"
"I26<22>v" "I26_22v"
"I26<21>v" "I26_21v"
"I26<20>v" "I26_20v"
"I26<19>v" "I26_19v"
"I26<18>v" "I26_18v"
"I26<17>v" "I26_17v"
"I26<16>v" "I26_16v"
"I26<15>v" "I26_15v"
"I26<14>v" "I26_14v"
"I26<13>v" "I26_13v"
"I26<12>v" "I26_12v"
"I26<11>v" "I26_11v"
"I26<10>v" "I26_10v"
"I26<9>v" "I26_9v"
"I26<8>v" "I26_8v"
"I26<7>v" "I26_7v"
"I26<6>v" "I26_6v"
"I26<5>v" "I26_5v"
"I26<4>v" "I26_4v"
"I26<3>v" "I26_3v"
"I26<2>v" "I26_2v"
"I26<1>v" "I26_1v"
"I26<0>v" "I26_0v"
"I27<31>v" "I27_31v"
"I27<30>v" "I27_30v"
"I27<29>v" "I27_29v"
"I27<28>v" "I27_28v"
"I27<27>v" "I27_27v"
"I27<26>v" "I27_26v"
"I27<25>v" "I27_25v"
"I27<24>v" "I27_24v"
"I27<23>v" "I27_23v"
"I27<22>v" "I27_22v"
"I27<21>v" "I27_21v"
"I27<20>v" "I27_20v"
"I27<19>v" "I27_19v"
"I27<18>v" "I27_18v"
"I27<17>v" "I27_17v"
"I27<16>v" "I27_16v"
"I27<15>v" "I27_15v"
"I27<14>v" "I27_14v"
"I27<13>v" "I27_13v"
"I27<12>v" "I27_12v"
"I27<11>v" "I27_11v"
"I27<10>v" "I27_10v"
"I27<9>v" "I27_9v"
"I27<8>v" "I27_8v"
"I27<7>v" "I27_7v"
"I27<6>v" "I27_6v"
"I27<5>v" "I27_5v"
"I27<4>v" "I27_4v"
"I27<3>v" "I27_3v"
"I27<2>v" "I27_2v"
"I27<1>v" "I27_1v"
"I27<0>v" "I27_0v"
"I24<1>v" "I24_1v"
"I26<31>n I26<30>n I26<29>n I26<28>n I26<27>n I26<26>n I26<25>n I26<24>n I26<23>n I26<22>n I26<21>n I26<20>n I26<19>n I26<18>n I26<17>n I26<16>n I26<15>n I26<14>n I26<13>n I26<12>n I26<11>n I26<10>n I26<9>n I26<8>n I26<7>n I26<6>n I26<5>n I26<4>n I26<3>n I26<2>n I26<1>n I26<0>n I27<31>n I27<30>n I27<29>n I27<28>n I27<27>n I27<26>n I27<25>n I27<24>n I27<23>n I27<22>n I27<21>n I27<20>n I27<19>n I27<18>n I27<17>n I27<16>n I27<15>n I27<14>n I27<13>n I27<12>n I27<11>n I27<10>n I27<9>n I27<8>n I27<7>n I27<6>n I27<5>n I27<4>n I27<3>n I27<2>n I27<1>n I27<0>n" "Mux_4to1_tx"
"I24<0>v" "I24_0v"
"I25<1>v" "I25_1v"
"I25<0>v" "I25_0v"
"I24<1>n I24<0>n I25<1>n I25<0>n" "inv_1x"
"GoRv" ":1v"
"GoWv" ":2v"
"KRev" ":3v"
"KWev" ":4v"
"R1<31>v" ":5v"
"R1<30>v" ":6v"
"R1<29>v" ":7v"
"R1<28>v" ":8v"
"R1<27>v" ":9v"
"R1<26>v" ":10v"
"R1<25>v" ":11v"
"R1<24>v" ":12v"
"R1<23>v" ":13v"
"R1<22>v" ":14v"
"R1<21>v" ":15v"
"R1<20>v" ":16v"
"R1<19>v" ":17v"
"R1<18>v" ":18v"
"R1<17>v" ":19v"
"R1<16>v" ":20v"
"R1<15>v" ":21v"
"R1<14>v" ":22v"
"R1<13>v" ":23v"
"R1<12>v" ":24v"
"R1<11>v" ":25v"
"R1<10>v" ":26v"
"R1<9>v" ":27v"
"R1<8>v" ":28v"
"R1<7>v" ":29v"
"R1<6>v" ":30v"
"R1<5>v" ":31v"
"R1<4>v" ":32v"
"R1<3>v" ":33v"
"R1<2>v" ":34v"
"R1<1>v" ":35v"
"R1<0>v" ":36v"
"R_Addr<6>v" ":37v"
"R_Addr<5>v" ":38v"
"R_Addr<4>v" ":39v"
"R_Addr<3>v" ":40v"
"R_Addr<2>v" ":41v"
"R_Addr<1>v" ":42v"
"R_Addr<0>v" ":43v"
"Resetv" ":44v"
"W0<31>v" ":45v"
"W0<30>v" ":46v"
"W0<29>v" ":47v"
"W0<28>v" ":48v"
"W0<27>v" ":49v"
"W0<26>v" ":50v"
"W0<25>v" ":51v"
"W0<24>v" ":52v"
"W0<23>v" ":53v"
"W0<22>v" ":54v"
"W0<21>v" ":55v"
"W0<20>v" ":56v"
"W0<19>v" ":57v"
"W0<18>v" ":58v"
"W0<17>v" ":59v"
"W0<16>v" ":60v"
"W0<15>v" ":61v"
"W0<14>v" ":62v"
"W0<13>v" ":63v"
"W0<12>v" ":64v"
"W0<11>v" ":65v"
"W0<10>v" ":66v"
"W0<9>v" ":67v"
"W0<8>v" ":68v"
"W0<7>v" ":69v"
"W0<6>v" ":70v"
"W0<5>v" ":71v"
"W0<4>v" ":72v"
"W0<3>v" ":73v"
"W0<2>v" ":74v"
"W0<1>v" ":75v"
"W0<0>v" ":76v"
"W1<31>v" ":77v"
"W1<30>v" ":78v"
"W1<29>v" ":79v"
"W1<28>v" ":80v"
"W1<27>v" ":81v"
"W1<26>v" ":82v"
"W1<25>v" ":83v"
"W1<24>v" ":84v"
"W1<23>v" ":85v"
"W1<22>v" ":86v"
"W1<21>v" ":87v"
"W1<20>v" ":88v"
"W1<19>v" ":89v"
"W1<18>v" ":90v"
"W1<17>v" ":91v"
"W1<16>v" ":92v"
"W1<15>v" ":93v"
"W1<14>v" ":94v"
"W1<13>v" ":95v"
"W1<12>v" ":96v"
"W1<11>v" ":97v"
"W1<10>v" ":98v"
"W1<9>v" ":99v"
"W1<8>v" ":100v"
"W1<7>v" ":101v"
"W1<6>v" ":102v"
"W1<5>v" ":103v"
"W1<4>v" ":104v"
"W1<3>v" ":105v"
"W1<2>v" ":106v"
"W1<1>v" ":107v"
"W1<0>v" ":108v"
"W_Addr<6>v" ":109v"
"W_Addr<5>v" ":110v"
"W_Addr<4>v" ":111v"
"W_Addr<3>v" ":112v"
"W_Addr<2>v" ":113v"
"W_Addr<1>v" ":114v"
"W_Addr<0>v" ":115v"
"R0<31>v" ":116v"
"R0<30>v" ":117v"
"R0<29>v" ":118v"
"R0<28>v" ":119v"
"R0<27>v" ":120v"
"R0<26>v" ":121v"
"R0<25>v" ":122v"
"R0<24>v" ":123v"
"R0<23>v" ":124v"
"R0<22>v" ":125v"
"R0<21>v" ":126v"
"R0<20>v" ":127v"
"R0<19>v" ":128v"
"R0<18>v" ":129v"
"R0<17>v" ":130v"
"R0<16>v" ":131v"
"R0<15>v" ":132v"
"R0<14>v" ":133v"
"R0<13>v" ":134v"
"R0<12>v" ":135v"
"R0<11>v" ":136v"
"R0<10>v" ":137v"
"R0<9>v" ":138v"
"R0<8>v" ":139v"
"R0<7>v" ":140v"
"R0<6>v" ":141v"
"R0<5>v" ":142v"
"R0<4>v" ":143v"
"R0<3>v" ":144v"
"R0<2>v" ":145v"
"R0<1>v" ":146v"
"R0<0>v" ":147v"
