HEADER
"PSFversion" "1.00"
"GoRv" "GoRv"
"net059<0>v" "net059_0v"
"net059<1>v" "net059_1v"
"R_Addr<6>v" "R_Addr_6v"
"R_Addr<5>v" "R_Addr_5v"
"R1_Reg4<31>v" "R1_Reg4_31v"
"R1_Reg4<30>v" "R1_Reg4_30v"
"R1_Reg4<29>v" "R1_Reg4_29v"
"R1_Reg4<28>v" "R1_Reg4_28v"
"R1_Reg4<27>v" "R1_Reg4_27v"
"R1_Reg4<26>v" "R1_Reg4_26v"
"R1_Reg4<25>v" "R1_Reg4_25v"
"R1_Reg4<24>v" "R1_Reg4_24v"
"R1_Reg4<23>v" "R1_Reg4_23v"
"R1_Reg4<22>v" "R1_Reg4_22v"
"R1_Reg4<21>v" "R1_Reg4_21v"
"R1_Reg4<20>v" "R1_Reg4_20v"
"R1_Reg4<19>v" "R1_Reg4_19v"
"R1_Reg4<18>v" "R1_Reg4_18v"
"R1_Reg4<17>v" "R1_Reg4_17v"
"R1_Reg4<16>v" "R1_Reg4_16v"
"R1_Reg4<15>v" "R1_Reg4_15v"
"R1_Reg4<14>v" "R1_Reg4_14v"
"R1_Reg4<13>v" "R1_Reg4_13v"
"R1_Reg4<12>v" "R1_Reg4_12v"
"R1_Reg4<11>v" "R1_Reg4_11v"
"R1_Reg4<10>v" "R1_Reg4_10v"
"R1_Reg4<9>v" "R1_Reg4_9v"
"R1_Reg4<8>v" "R1_Reg4_8v"
"R1_Reg4<7>v" "R1_Reg4_7v"
"R1_Reg4<6>v" "R1_Reg4_6v"
"R1_Reg4<5>v" "R1_Reg4_5v"
"R1_Reg4<4>v" "R1_Reg4_4v"
"R1_Reg4<3>v" "R1_Reg4_3v"
"R1_Reg4<2>v" "R1_Reg4_2v"
"R1_Reg4<1>v" "R1_Reg4_1v"
"R1_Reg4<0>v" "R1_Reg4_0v"
"net056v" "net056v"
"KW<1>v" "KW_1v"
"KW<3>v" "KW_3v"
"RO_Reg2<31>v" "RO_Reg2_31v"
"RO_Reg2<30>v" "RO_Reg2_30v"
"RO_Reg2<29>v" "RO_Reg2_29v"
"RO_Reg2<28>v" "RO_Reg2_28v"
"RO_Reg2<27>v" "RO_Reg2_27v"
"RO_Reg2<26>v" "RO_Reg2_26v"
"RO_Reg2<25>v" "RO_Reg2_25v"
"RO_Reg2<24>v" "RO_Reg2_24v"
"RO_Reg2<23>v" "RO_Reg2_23v"
"RO_Reg2<22>v" "RO_Reg2_22v"
"RO_Reg2<21>v" "RO_Reg2_21v"
"RO_Reg2<20>v" "RO_Reg2_20v"
"RO_Reg2<19>v" "RO_Reg2_19v"
"RO_Reg2<18>v" "RO_Reg2_18v"
"RO_Reg2<17>v" "RO_Reg2_17v"
"RO_Reg2<16>v" "RO_Reg2_16v"
"RO_Reg2<15>v" "RO_Reg2_15v"
"RO_Reg2<14>v" "RO_Reg2_14v"
"RO_Reg2<13>v" "RO_Reg2_13v"
"RO_Reg2<12>v" "RO_Reg2_12v"
"RO_Reg2<11>v" "RO_Reg2_11v"
"RO_Reg2<10>v" "RO_Reg2_10v"
"RO_Reg2<9>v" "RO_Reg2_9v"
"RO_Reg2<8>v" "RO_Reg2_8v"
"RO_Reg2<7>v" "RO_Reg2_7v"
"RO_Reg2<6>v" "RO_Reg2_6v"
"RO_Reg2<5>v" "RO_Reg2_5v"
"RO_Reg2<4>v" "RO_Reg2_4v"
"RO_Reg2<3>v" "RO_Reg2_3v"
"RO_Reg2<2>v" "RO_Reg2_2v"
"RO_Reg2<1>v" "RO_Reg2_1v"
"RO_Reg2<0>v" "RO_Reg2_0v"
"Ws<3>v" "Ws_3v"
"Ws<2>v" "Ws_2v"
"Ws<1>v" "Ws_1v"
"Ws<0>v" "Ws_0v"
"KR<2>v" "KR_2v"
"KR<0>v" "KR_0v"
"W0<31>v" "W0_31v"
"W0<30>v" "W0_30v"
"W0<29>v" "W0_29v"
"W0<28>v" "W0_28v"
"W0<27>v" "W0_27v"
"W0<26>v" "W0_26v"
"W0<25>v" "W0_25v"
"W0<24>v" "W0_24v"
"W0<23>v" "W0_23v"
"W0<22>v" "W0_22v"
"W0<21>v" "W0_21v"
"W0<20>v" "W0_20v"
"W0<19>v" "W0_19v"
"W0<18>v" "W0_18v"
"W0<17>v" "W0_17v"
"W0<16>v" "W0_16v"
"W0<15>v" "W0_15v"
"W0<14>v" "W0_14v"
"W0<13>v" "W0_13v"
"W0<12>v" "W0_12v"
"W0<11>v" "W0_11v"
"W0<10>v" "W0_10v"
"W0<9>v" "W0_9v"
"W0<8>v" "W0_8v"
"W0<7>v" "W0_7v"
"W0<6>v" "W0_6v"
"W0<5>v" "W0_5v"
"W0<4>v" "W0_4v"
"W0<3>v" "W0_3v"
"W0<2>v" "W0_2v"
"W0<1>v" "W0_1v"
"W0<0>v" "W0_0v"
"KR<3>v" "KR_3v"
"R_Addr<4>v" "R_Addr_4v"
"R_Addr<3>v" "R_Addr_3v"
"R_Addr<2>v" "R_Addr_2v"
"R_Addr<1>v" "R_Addr_1v"
"R_Addr<0>v" "R_Addr_0v"
"KR<1>v" "KR_1v"
"R1<31>v" "R1_31v"
"R1<30>v" "R1_30v"
"R1<29>v" "R1_29v"
"R1<28>v" "R1_28v"
"R1<27>v" "R1_27v"
"R1<26>v" "R1_26v"
"R1<25>v" "R1_25v"
"R1<24>v" "R1_24v"
"R1<23>v" "R1_23v"
"R1<22>v" "R1_22v"
"R1<21>v" "R1_21v"
"R1<20>v" "R1_20v"
"R1<19>v" "R1_19v"
"R1<18>v" "R1_18v"
"R1<17>v" "R1_17v"
"R1<16>v" "R1_16v"
"R1<15>v" "R1_15v"
"R1<14>v" "R1_14v"
"R1<13>v" "R1_13v"
"R1<12>v" "R1_12v"
"R1<11>v" "R1_11v"
"R1<10>v" "R1_10v"
"R1<9>v" "R1_9v"
"R1<8>v" "R1_8v"
"R1<7>v" "R1_7v"
"R1<6>v" "R1_6v"
"R1<5>v" "R1_5v"
"R1<4>v" "R1_4v"
"R1<3>v" "R1_3v"
"R1<2>v" "R1_2v"
"R1<1>v" "R1_1v"
"R1<0>v" "R1_0v"
"~KRev" "\\~KRev"
"net59<0>v" "net59_0v"
"net59<1>v" "net59_1v"
"net59<2>v" "net59_2v"
"net59<3>v" "net59_3v"
"net59<4>v" "net59_4v"
"net59<5>v" "net59_5v"
"net59<6>v" "net59_6v"
"net59<7>v" "net59_7v"
"R0_Reg4<31>v" "R0_Reg4_31v"
"R0_Reg4<30>v" "R0_Reg4_30v"
"R0_Reg4<29>v" "R0_Reg4_29v"
"R0_Reg4<28>v" "R0_Reg4_28v"
"R0_Reg4<27>v" "R0_Reg4_27v"
"R0_Reg4<26>v" "R0_Reg4_26v"
"R0_Reg4<25>v" "R0_Reg4_25v"
"R0_Reg4<24>v" "R0_Reg4_24v"
"R0_Reg4<23>v" "R0_Reg4_23v"
"R0_Reg4<22>v" "R0_Reg4_22v"
"R0_Reg4<21>v" "R0_Reg4_21v"
"R0_Reg4<20>v" "R0_Reg4_20v"
"R0_Reg4<19>v" "R0_Reg4_19v"
"R0_Reg4<18>v" "R0_Reg4_18v"
"R0_Reg4<17>v" "R0_Reg4_17v"
"R0_Reg4<16>v" "R0_Reg4_16v"
"R0_Reg4<15>v" "R0_Reg4_15v"
"R0_Reg4<14>v" "R0_Reg4_14v"
"R0_Reg4<13>v" "R0_Reg4_13v"
"R0_Reg4<12>v" "R0_Reg4_12v"
"R0_Reg4<11>v" "R0_Reg4_11v"
"R0_Reg4<10>v" "R0_Reg4_10v"
"R0_Reg4<9>v" "R0_Reg4_9v"
"R0_Reg4<8>v" "R0_Reg4_8v"
"R0_Reg4<7>v" "R0_Reg4_7v"
"R0_Reg4<6>v" "R0_Reg4_6v"
"R0_Reg4<5>v" "R0_Reg4_5v"
"R0_Reg4<4>v" "R0_Reg4_4v"
"R0_Reg4<3>v" "R0_Reg4_3v"
"R0_Reg4<2>v" "R0_Reg4_2v"
"R0_Reg4<1>v" "R0_Reg4_1v"
"R0_Reg4<0>v" "R0_Reg4_0v"
"net65<0>v" "net65_0v"
"net65<1>v" "net65_1v"
"net65<2>v" "net65_2v"
"net65<3>v" "net65_3v"
"net65<4>v" "net65_4v"
"net65<5>v" "net65_5v"
"net65<6>v" "net65_6v"
"net65<7>v" "net65_7v"
"KW<0>v" "KW_0v"
"W_Addr<4>v" "W_Addr_4v"
"W_Addr<3>v" "W_Addr_3v"
"W_Addr<2>v" "W_Addr_2v"
"W_Addr<1>v" "W_Addr_1v"
"W_Addr<0>v" "W_Addr_0v"
"R1_Reg1<31>v" "R1_Reg1_31v"
"R1_Reg1<30>v" "R1_Reg1_30v"
"R1_Reg1<29>v" "R1_Reg1_29v"
"R1_Reg1<28>v" "R1_Reg1_28v"
"R1_Reg1<27>v" "R1_Reg1_27v"
"R1_Reg1<26>v" "R1_Reg1_26v"
"R1_Reg1<25>v" "R1_Reg1_25v"
"R1_Reg1<24>v" "R1_Reg1_24v"
"R1_Reg1<23>v" "R1_Reg1_23v"
"R1_Reg1<22>v" "R1_Reg1_22v"
"R1_Reg1<21>v" "R1_Reg1_21v"
"R1_Reg1<20>v" "R1_Reg1_20v"
"R1_Reg1<19>v" "R1_Reg1_19v"
"R1_Reg1<18>v" "R1_Reg1_18v"
"R1_Reg1<17>v" "R1_Reg1_17v"
"R1_Reg1<16>v" "R1_Reg1_16v"
"R1_Reg1<15>v" "R1_Reg1_15v"
"R1_Reg1<14>v" "R1_Reg1_14v"
"R1_Reg1<13>v" "R1_Reg1_13v"
"R1_Reg1<12>v" "R1_Reg1_12v"
"R1_Reg1<11>v" "R1_Reg1_11v"
"R1_Reg1<10>v" "R1_Reg1_10v"
"R1_Reg1<9>v" "R1_Reg1_9v"
"R1_Reg1<8>v" "R1_Reg1_8v"
"R1_Reg1<7>v" "R1_Reg1_7v"
"R1_Reg1<6>v" "R1_Reg1_6v"
"R1_Reg1<5>v" "R1_Reg1_5v"
"R1_Reg1<4>v" "R1_Reg1_4v"
"R1_Reg1<3>v" "R1_Reg1_3v"
"R1_Reg1<2>v" "R1_Reg1_2v"
"R1_Reg1<1>v" "R1_Reg1_1v"
"R1_Reg1<0>v" "R1_Reg1_0v"
"net63<0>v" "net63_0v"
"net63<1>v" "net63_1v"
"net63<2>v" "net63_2v"
"net63<3>v" "net63_3v"
"net63<4>v" "net63_4v"
"net63<5>v" "net63_5v"
"net63<6>v" "net63_6v"
"net63<7>v" "net63_7v"
"net058<0>v" "net058_0v"
"net058<1>v" "net058_1v"
"R1_Reg3<31>v" "R1_Reg3_31v"
"R1_Reg3<30>v" "R1_Reg3_30v"
"R1_Reg3<29>v" "R1_Reg3_29v"
"R1_Reg3<28>v" "R1_Reg3_28v"
"R1_Reg3<27>v" "R1_Reg3_27v"
"R1_Reg3<26>v" "R1_Reg3_26v"
"R1_Reg3<25>v" "R1_Reg3_25v"
"R1_Reg3<24>v" "R1_Reg3_24v"
"R1_Reg3<23>v" "R1_Reg3_23v"
"R1_Reg3<22>v" "R1_Reg3_22v"
"R1_Reg3<21>v" "R1_Reg3_21v"
"R1_Reg3<20>v" "R1_Reg3_20v"
"R1_Reg3<19>v" "R1_Reg3_19v"
"R1_Reg3<18>v" "R1_Reg3_18v"
"R1_Reg3<17>v" "R1_Reg3_17v"
"R1_Reg3<16>v" "R1_Reg3_16v"
"R1_Reg3<15>v" "R1_Reg3_15v"
"R1_Reg3<14>v" "R1_Reg3_14v"
"R1_Reg3<13>v" "R1_Reg3_13v"
"R1_Reg3<12>v" "R1_Reg3_12v"
"R1_Reg3<11>v" "R1_Reg3_11v"
"R1_Reg3<10>v" "R1_Reg3_10v"
"R1_Reg3<9>v" "R1_Reg3_9v"
"R1_Reg3<8>v" "R1_Reg3_8v"
"R1_Reg3<7>v" "R1_Reg3_7v"
"R1_Reg3<6>v" "R1_Reg3_6v"
"R1_Reg3<5>v" "R1_Reg3_5v"
"R1_Reg3<4>v" "R1_Reg3_4v"
"R1_Reg3<3>v" "R1_Reg3_3v"
"R1_Reg3<2>v" "R1_Reg3_2v"
"R1_Reg3<1>v" "R1_Reg3_1v"
"R1_Reg3<0>v" "R1_Reg3_0v"
"RO_Reg1<31>v" "RO_Reg1_31v"
"RO_Reg1<30>v" "RO_Reg1_30v"
"RO_Reg1<29>v" "RO_Reg1_29v"
"RO_Reg1<28>v" "RO_Reg1_28v"
"RO_Reg1<27>v" "RO_Reg1_27v"
"RO_Reg1<26>v" "RO_Reg1_26v"
"RO_Reg1<25>v" "RO_Reg1_25v"
"RO_Reg1<24>v" "RO_Reg1_24v"
"RO_Reg1<23>v" "RO_Reg1_23v"
"RO_Reg1<22>v" "RO_Reg1_22v"
"RO_Reg1<21>v" "RO_Reg1_21v"
"RO_Reg1<20>v" "RO_Reg1_20v"
"RO_Reg1<19>v" "RO_Reg1_19v"
"RO_Reg1<18>v" "RO_Reg1_18v"
"RO_Reg1<17>v" "RO_Reg1_17v"
"RO_Reg1<16>v" "RO_Reg1_16v"
"RO_Reg1<15>v" "RO_Reg1_15v"
"RO_Reg1<14>v" "RO_Reg1_14v"
"RO_Reg1<13>v" "RO_Reg1_13v"
"RO_Reg1<12>v" "RO_Reg1_12v"
"RO_Reg1<11>v" "RO_Reg1_11v"
"RO_Reg1<10>v" "RO_Reg1_10v"
"RO_Reg1<9>v" "RO_Reg1_9v"
"RO_Reg1<8>v" "RO_Reg1_8v"
"RO_Reg1<7>v" "RO_Reg1_7v"
"RO_Reg1<6>v" "RO_Reg1_6v"
"RO_Reg1<5>v" "RO_Reg1_5v"
"RO_Reg1<4>v" "RO_Reg1_4v"
"RO_Reg1<3>v" "RO_Reg1_3v"
"RO_Reg1<2>v" "RO_Reg1_2v"
"RO_Reg1<1>v" "RO_Reg1_1v"
"RO_Reg1<0>v" "RO_Reg1_0v"
"Rs<1>v" "Rs_1v"
"net61<0>v" "net61_0v"
"net61<1>v" "net61_1v"
"net61<2>v" "net61_2v"
"net61<3>v" "net61_3v"
"net61<4>v" "net61_4v"
"net61<5>v" "net61_5v"
"net61<6>v" "net61_6v"
"net61<7>v" "net61_7v"
"W_Addr<6>v" "W_Addr_6v"
"W_Addr<5>v" "W_Addr_5v"
"W1<31>v" "W1_31v"
"W1<30>v" "W1_30v"
"W1<29>v" "W1_29v"
"W1<28>v" "W1_28v"
"W1<27>v" "W1_27v"
"W1<26>v" "W1_26v"
"W1<25>v" "W1_25v"
"W1<24>v" "W1_24v"
"W1<23>v" "W1_23v"
"W1<22>v" "W1_22v"
"W1<21>v" "W1_21v"
"W1<20>v" "W1_20v"
"W1<19>v" "W1_19v"
"W1<18>v" "W1_18v"
"W1<17>v" "W1_17v"
"W1<16>v" "W1_16v"
"W1<15>v" "W1_15v"
"W1<14>v" "W1_14v"
"W1<13>v" "W1_13v"
"W1<12>v" "W1_12v"
"W1<11>v" "W1_11v"
"W1<10>v" "W1_10v"
"W1<9>v" "W1_9v"
"W1<8>v" "W1_8v"
"W1<7>v" "W1_7v"
"W1<6>v" "W1_6v"
"W1<5>v" "W1_5v"
"W1<4>v" "W1_4v"
"W1<3>v" "W1_3v"
"W1<2>v" "W1_2v"
"W1<1>v" "W1_1v"
"W1<0>v" "W1_0v"
"~KWev" "\\~KWev"
"R1_Reg2<31>v" "R1_Reg2_31v"
"R1_Reg2<30>v" "R1_Reg2_30v"
"R1_Reg2<29>v" "R1_Reg2_29v"
"R1_Reg2<28>v" "R1_Reg2_28v"
"R1_Reg2<27>v" "R1_Reg2_27v"
"R1_Reg2<26>v" "R1_Reg2_26v"
"R1_Reg2<25>v" "R1_Reg2_25v"
"R1_Reg2<24>v" "R1_Reg2_24v"
"R1_Reg2<23>v" "R1_Reg2_23v"
"R1_Reg2<22>v" "R1_Reg2_22v"
"R1_Reg2<21>v" "R1_Reg2_21v"
"R1_Reg2<20>v" "R1_Reg2_20v"
"R1_Reg2<19>v" "R1_Reg2_19v"
"R1_Reg2<18>v" "R1_Reg2_18v"
"R1_Reg2<17>v" "R1_Reg2_17v"
"R1_Reg2<16>v" "R1_Reg2_16v"
"R1_Reg2<15>v" "R1_Reg2_15v"
"R1_Reg2<14>v" "R1_Reg2_14v"
"R1_Reg2<13>v" "R1_Reg2_13v"
"R1_Reg2<12>v" "R1_Reg2_12v"
"R1_Reg2<11>v" "R1_Reg2_11v"
"R1_Reg2<10>v" "R1_Reg2_10v"
"R1_Reg2<9>v" "R1_Reg2_9v"
"R1_Reg2<8>v" "R1_Reg2_8v"
"R1_Reg2<7>v" "R1_Reg2_7v"
"R1_Reg2<6>v" "R1_Reg2_6v"
"R1_Reg2<5>v" "R1_Reg2_5v"
"R1_Reg2<4>v" "R1_Reg2_4v"
"R1_Reg2<3>v" "R1_Reg2_3v"
"R1_Reg2<2>v" "R1_Reg2_2v"
"R1_Reg2<1>v" "R1_Reg2_1v"
"R1_Reg2<0>v" "R1_Reg2_0v"
"Rs<0>v" "Rs_0v"
"R0_Reg3<31>v" "R0_Reg3_31v"
"R0_Reg3<30>v" "R0_Reg3_30v"
"R0_Reg3<29>v" "R0_Reg3_29v"
"R0_Reg3<28>v" "R0_Reg3_28v"
"R0_Reg3<27>v" "R0_Reg3_27v"
"R0_Reg3<26>v" "R0_Reg3_26v"
"R0_Reg3<25>v" "R0_Reg3_25v"
"R0_Reg3<24>v" "R0_Reg3_24v"
"R0_Reg3<23>v" "R0_Reg3_23v"
"R0_Reg3<22>v" "R0_Reg3_22v"
"R0_Reg3<21>v" "R0_Reg3_21v"
"R0_Reg3<20>v" "R0_Reg3_20v"
"R0_Reg3<19>v" "R0_Reg3_19v"
"R0_Reg3<18>v" "R0_Reg3_18v"
"R0_Reg3<17>v" "R0_Reg3_17v"
"R0_Reg3<16>v" "R0_Reg3_16v"
"R0_Reg3<15>v" "R0_Reg3_15v"
"R0_Reg3<14>v" "R0_Reg3_14v"
"R0_Reg3<13>v" "R0_Reg3_13v"
"R0_Reg3<12>v" "R0_Reg3_12v"
"R0_Reg3<11>v" "R0_Reg3_11v"
"R0_Reg3<10>v" "R0_Reg3_10v"
"R0_Reg3<9>v" "R0_Reg3_9v"
"R0_Reg3<8>v" "R0_Reg3_8v"
"R0_Reg3<7>v" "R0_Reg3_7v"
"R0_Reg3<6>v" "R0_Reg3_6v"
"R0_Reg3<5>v" "R0_Reg3_5v"
"R0_Reg3<4>v" "R0_Reg3_4v"
"R0_Reg3<3>v" "R0_Reg3_3v"
"R0_Reg3<2>v" "R0_Reg3_2v"
"R0_Reg3<1>v" "R0_Reg3_1v"
"R0_Reg3<0>v" "R0_Reg3_0v"
"REnOutv" "REnOutv"
"Rs<3>v" "Rs_3v"
"Rs<2>v" "Rs_2v"
"Resetv" "Resetv"
"GoWv" "GoWv"
"KW<2>v" "KW_2v"
"R0<31>v" "R0_31v"
"R0<30>v" "R0_30v"
"R0<29>v" "R0_29v"
"R0<28>v" "R0_28v"
"R0<27>v" "R0_27v"
"R0<26>v" "R0_26v"
"R0<25>v" "R0_25v"
"R0<24>v" "R0_24v"
"R0<23>v" "R0_23v"
"R0<22>v" "R0_22v"
"R0<21>v" "R0_21v"
"R0<20>v" "R0_20v"
"R0<19>v" "R0_19v"
"R0<18>v" "R0_18v"
"R0<17>v" "R0_17v"
"R0<16>v" "R0_16v"
"R0<15>v" "R0_15v"
"R0<14>v" "R0_14v"
"R0<13>v" "R0_13v"
"R0<12>v" "R0_12v"
"R0<11>v" "R0_11v"
"R0<10>v" "R0_10v"
"R0<9>v" "R0_9v"
"R0<8>v" "R0_8v"
"R0<7>v" "R0_7v"
"R0<6>v" "R0_6v"
"R0<5>v" "R0_5v"
"R0<4>v" "R0_4v"
"R0<3>v" "R0_3v"
"R0<2>v" "R0_2v"
"R0<1>v" "R0_1v"
"R0<0>v" "R0_0v"
