HEADER
"PSFversion" "1.00"
"I<3>v" "I_3v"
"I<2>v" "I_2v"
"I<1>v" "I_1v"
"I<0>v" "I_0v"
"A<15>v" "A_15v"
"A<14>v" "A_14v"
"A<13>v" "A_13v"
"A<12>v" "A_12v"
"A<11>v" "A_11v"
"A<10>v" "A_10v"
"A<9>v" "A_9v"
"A<8>v" "A_8v"
"A<7>v" "A_7v"
"A<6>v" "A_6v"
"A<5>v" "A_5v"
"A<4>v" "A_4v"
"A<3>v" "A_3v"
"A<2>v" "A_2v"
"A<1>v" "A_1v"
"A<0>v" "A_0v"
"net050v" "net050v"
"net37v" "net37v"
"net14v" "net14v"
"net19v" "net19v"
"net099v" "net099v"
"net020v" "net020v"
"net019v" "net019v"
"net069v" "net069v"
"net014v" "net014v"
"net016v" "net016v"
"net015v" "net015v"
"net017v" "net017v"
"net1v" "net1v"
"net023v" "net023v"
"net064v" "net064v"
"net5v" "net5v"
"net022v" "net022v"
"net055v" "net055v"
"net021v" "net021v"
"net11v" "net11v"
"net079v" "net079v"
"net062v" "net062v"
"net018v" "net018v"
"net068v" "net068v"
"net013v" "net013v"
"net012v" "net012v"
"net011v" "net011v"
"net0100v" "net0100v"
"Resetv" "Resetv"
"net024v" "net024v"
"Env" "Env"
