HEADER
"PSFversion" "1.00"
"I4n" "inv_1x"
"I0n I1n" "and_1x"
"Env" ":1v"
"Iv" ":2v"
"Sel<1>v" ":3v"
"Sel<0>v" ":4v"
