HEADER
"PSFversion" "1.00"
"Sel<2>v" "Sel_2v"
"net10v" "net10v"
"Env" "Env"
"I<0>v" "I_0v"
"net6v" "net6v"
"Sel<0>v" "Sel_0v"
"I<1>v" "I_1v"
"Sel<3>v" "Sel_3v"
"Sel<1>v" "Sel_1v"
