HEADER
"PSFversion" "1.00"
"net068v" "net068v"
"net1v" "net1v"
"I<1>v" "I_1v"
"net064v" "net064v"
"net055v" "net055v"
"I<2>v" "I_2v"
"I<3>v" "I_3v"
"I<0>v" "I_0v"
"A<0>v" "A_0v"
"A<13>v" "A_13v"
"net062v" "net062v"
"A<1>v" "A_1v"
"A<2>v" "A_2v"
"A<3>v" "A_3v"
"A<4>v" "A_4v"
"A<5>v" "A_5v"
"A<6>v" "A_6v"
"A<7>v" "A_7v"
"A<8>v" "A_8v"
"A<9>v" "A_9v"
"A<10>v" "A_10v"
"A<11>v" "A_11v"
"A<12>v" "A_12v"
"net14v" "net14v"
"net37v" "net37v"
"A<15>v" "A_15v"
"net19v" "net19v"
"net069v" "net069v"
"net11v" "net11v"
"net079v" "net079v"
"net5v" "net5v"
"A<14>v" "A_14v"
"Env" "Env"
