HEADER
"PSFversion" "1.00"
"Av" "Av"
"net23v" "net23v"
"Zv" "Zv"
"S1v" "S1v"
"Dv" "Dv"
"Cv" "Cv"
"net22v" "net22v"
"net14v" "net14v"
"net24v" "net24v"
"Bv" "Bv"
"net19v" "net19v"
"net25v" "net25v"
"S0v" "S0v"
