HEADER
"PSFversion" "1.00"
"net23<0>v" "net23_0v"
"net23<1>v" "net23_1v"
"net23<2>v" "net23_2v"
"net23<3>v" "net23_3v"
"net23<4>v" "net23_4v"
"net23<5>v" "net23_5v"
"net23<6>v" "net23_6v"
"net23<7>v" "net23_7v"
"net23<8>v" "net23_8v"
"net23<9>v" "net23_9v"
"net23<10>v" "net23_10v"
"net23<11>v" "net23_11v"
"net23<12>v" "net23_12v"
"net23<13>v" "net23_13v"
"net23<14>v" "net23_14v"
"net23<15>v" "net23_15v"
"net23<16>v" "net23_16v"
"net23<17>v" "net23_17v"
"net23<18>v" "net23_18v"
"net23<19>v" "net23_19v"
"net23<20>v" "net23_20v"
"net23<21>v" "net23_21v"
"net23<22>v" "net23_22v"
"net23<23>v" "net23_23v"
"net23<24>v" "net23_24v"
"net23<25>v" "net23_25v"
"net23<26>v" "net23_26v"
"net23<27>v" "net23_27v"
"net23<28>v" "net23_28v"
"net23<29>v" "net23_29v"
"net23<30>v" "net23_30v"
"net23<31>v" "net23_31v"
"~S<1>v" "\\~S_1v"
"~S<0>v" "\\~S_0v"
"S<1>v" "S_1v"
"S<0>v" "S_0v"
"Env" "Env"
"X1<31>v" "X1_31v"
"X1<30>v" "X1_30v"
"X1<29>v" "X1_29v"
"X1<28>v" "X1_28v"
"X1<27>v" "X1_27v"
"X1<26>v" "X1_26v"
"X1<25>v" "X1_25v"
"X1<24>v" "X1_24v"
"X1<23>v" "X1_23v"
"X1<22>v" "X1_22v"
"X1<21>v" "X1_21v"
"X1<20>v" "X1_20v"
"X1<19>v" "X1_19v"
"X1<18>v" "X1_18v"
"X1<17>v" "X1_17v"
"X1<16>v" "X1_16v"
"X1<15>v" "X1_15v"
"X1<14>v" "X1_14v"
"X1<13>v" "X1_13v"
"X1<12>v" "X1_12v"
"X1<11>v" "X1_11v"
"X1<10>v" "X1_10v"
"X1<9>v" "X1_9v"
"X1<8>v" "X1_8v"
"X1<7>v" "X1_7v"
"X1<6>v" "X1_6v"
"X1<5>v" "X1_5v"
"X1<4>v" "X1_4v"
"X1<3>v" "X1_3v"
"X1<2>v" "X1_2v"
"X1<1>v" "X1_1v"
"X1<0>v" "X1_0v"
"X3<31>v" "X3_31v"
"X3<30>v" "X3_30v"
"X3<29>v" "X3_29v"
"X3<28>v" "X3_28v"
"X3<27>v" "X3_27v"
"X3<26>v" "X3_26v"
"X3<25>v" "X3_25v"
"X3<24>v" "X3_24v"
"X3<23>v" "X3_23v"
"X3<22>v" "X3_22v"
"X3<21>v" "X3_21v"
"X3<20>v" "X3_20v"
"X3<19>v" "X3_19v"
"X3<18>v" "X3_18v"
"X3<17>v" "X3_17v"
"X3<16>v" "X3_16v"
"X3<15>v" "X3_15v"
"X3<14>v" "X3_14v"
"X3<13>v" "X3_13v"
"X3<12>v" "X3_12v"
"X3<11>v" "X3_11v"
"X3<10>v" "X3_10v"
"X3<9>v" "X3_9v"
"X3<8>v" "X3_8v"
"X3<7>v" "X3_7v"
"X3<6>v" "X3_6v"
"X3<5>v" "X3_5v"
"X3<4>v" "X3_4v"
"X3<3>v" "X3_3v"
"X3<2>v" "X3_2v"
"X3<1>v" "X3_1v"
"X3<0>v" "X3_0v"
"Y<31>v" "Y_31v"
"Y<30>v" "Y_30v"
"Y<29>v" "Y_29v"
"Y<28>v" "Y_28v"
"Y<27>v" "Y_27v"
"Y<26>v" "Y_26v"
"Y<25>v" "Y_25v"
"Y<24>v" "Y_24v"
"Y<23>v" "Y_23v"
"Y<22>v" "Y_22v"
"Y<21>v" "Y_21v"
"Y<20>v" "Y_20v"
"Y<19>v" "Y_19v"
"Y<18>v" "Y_18v"
"Y<17>v" "Y_17v"
"Y<16>v" "Y_16v"
"Y<15>v" "Y_15v"
"Y<14>v" "Y_14v"
"Y<13>v" "Y_13v"
"Y<12>v" "Y_12v"
"Y<11>v" "Y_11v"
"Y<10>v" "Y_10v"
"Y<9>v" "Y_9v"
"Y<8>v" "Y_8v"
"Y<7>v" "Y_7v"
"Y<6>v" "Y_6v"
"Y<5>v" "Y_5v"
"Y<4>v" "Y_4v"
"Y<3>v" "Y_3v"
"Y<2>v" "Y_2v"
"Y<1>v" "Y_1v"
"Y<0>v" "Y_0v"
"X2<31>v" "X2_31v"
"X2<30>v" "X2_30v"
"X2<29>v" "X2_29v"
"X2<28>v" "X2_28v"
"X2<27>v" "X2_27v"
"X2<26>v" "X2_26v"
"X2<25>v" "X2_25v"
"X2<24>v" "X2_24v"
"X2<23>v" "X2_23v"
"X2<22>v" "X2_22v"
"X2<21>v" "X2_21v"
"X2<20>v" "X2_20v"
"X2<19>v" "X2_19v"
"X2<18>v" "X2_18v"
"X2<17>v" "X2_17v"
"X2<16>v" "X2_16v"
"X2<15>v" "X2_15v"
"X2<14>v" "X2_14v"
"X2<13>v" "X2_13v"
"X2<12>v" "X2_12v"
"X2<11>v" "X2_11v"
"X2<10>v" "X2_10v"
"X2<9>v" "X2_9v"
"X2<8>v" "X2_8v"
"X2<7>v" "X2_7v"
"X2<6>v" "X2_6v"
"X2<5>v" "X2_5v"
"X2<4>v" "X2_4v"
"X2<3>v" "X2_3v"
"X2<2>v" "X2_2v"
"X2<1>v" "X2_1v"
"X2<0>v" "X2_0v"
"net22<0>v" "net22_0v"
"net22<1>v" "net22_1v"
"net22<2>v" "net22_2v"
"net22<3>v" "net22_3v"
"net22<4>v" "net22_4v"
"net22<5>v" "net22_5v"
"net22<6>v" "net22_6v"
"net22<7>v" "net22_7v"
"net22<8>v" "net22_8v"
"net22<9>v" "net22_9v"
"net22<10>v" "net22_10v"
"net22<11>v" "net22_11v"
"net22<12>v" "net22_12v"
"net22<13>v" "net22_13v"
"net22<14>v" "net22_14v"
"net22<15>v" "net22_15v"
"net22<16>v" "net22_16v"
"net22<17>v" "net22_17v"
"net22<18>v" "net22_18v"
"net22<19>v" "net22_19v"
"net22<20>v" "net22_20v"
"net22<21>v" "net22_21v"
"net22<22>v" "net22_22v"
"net22<23>v" "net22_23v"
"net22<24>v" "net22_24v"
"net22<25>v" "net22_25v"
"net22<26>v" "net22_26v"
"net22<27>v" "net22_27v"
"net22<28>v" "net22_28v"
"net22<29>v" "net22_29v"
"net22<30>v" "net22_30v"
"net22<31>v" "net22_31v"
"net25<0>v" "net25_0v"
"net25<1>v" "net25_1v"
"net25<2>v" "net25_2v"
"net25<3>v" "net25_3v"
"net25<4>v" "net25_4v"
"net25<5>v" "net25_5v"
"net25<6>v" "net25_6v"
"net25<7>v" "net25_7v"
"net25<8>v" "net25_8v"
"net25<9>v" "net25_9v"
"net25<10>v" "net25_10v"
"net25<11>v" "net25_11v"
"net25<12>v" "net25_12v"
"net25<13>v" "net25_13v"
"net25<14>v" "net25_14v"
"net25<15>v" "net25_15v"
"net25<16>v" "net25_16v"
"net25<17>v" "net25_17v"
"net25<18>v" "net25_18v"
"net25<19>v" "net25_19v"
"net25<20>v" "net25_20v"
"net25<21>v" "net25_21v"
"net25<22>v" "net25_22v"
"net25<23>v" "net25_23v"
"net25<24>v" "net25_24v"
"net25<25>v" "net25_25v"
"net25<26>v" "net25_26v"
"net25<27>v" "net25_27v"
"net25<28>v" "net25_28v"
"net25<29>v" "net25_29v"
"net25<30>v" "net25_30v"
"net25<31>v" "net25_31v"
"net24<0>v" "net24_0v"
"net24<1>v" "net24_1v"
"net24<2>v" "net24_2v"
"net24<3>v" "net24_3v"
"net24<4>v" "net24_4v"
"net24<5>v" "net24_5v"
"net24<6>v" "net24_6v"
"net24<7>v" "net24_7v"
"net24<8>v" "net24_8v"
"net24<9>v" "net24_9v"
"net24<10>v" "net24_10v"
"net24<11>v" "net24_11v"
"net24<12>v" "net24_12v"
"net24<13>v" "net24_13v"
"net24<14>v" "net24_14v"
"net24<15>v" "net24_15v"
"net24<16>v" "net24_16v"
"net24<17>v" "net24_17v"
"net24<18>v" "net24_18v"
"net24<19>v" "net24_19v"
"net24<20>v" "net24_20v"
"net24<21>v" "net24_21v"
"net24<22>v" "net24_22v"
"net24<23>v" "net24_23v"
"net24<24>v" "net24_24v"
"net24<25>v" "net24_25v"
"net24<26>v" "net24_26v"
"net24<27>v" "net24_27v"
"net24<28>v" "net24_28v"
"net24<29>v" "net24_29v"
"net24<30>v" "net24_30v"
"net24<31>v" "net24_31v"
"X4<31>v" "X4_31v"
"X4<30>v" "X4_30v"
"X4<29>v" "X4_29v"
"X4<28>v" "X4_28v"
"X4<27>v" "X4_27v"
"X4<26>v" "X4_26v"
"X4<25>v" "X4_25v"
"X4<24>v" "X4_24v"
"X4<23>v" "X4_23v"
"X4<22>v" "X4_22v"
"X4<21>v" "X4_21v"
"X4<20>v" "X4_20v"
"X4<19>v" "X4_19v"
"X4<18>v" "X4_18v"
"X4<17>v" "X4_17v"
"X4<16>v" "X4_16v"
"X4<15>v" "X4_15v"
"X4<14>v" "X4_14v"
"X4<13>v" "X4_13v"
"X4<12>v" "X4_12v"
"X4<11>v" "X4_11v"
"X4<10>v" "X4_10v"
"X4<9>v" "X4_9v"
"X4<8>v" "X4_8v"
"X4<7>v" "X4_7v"
"X4<6>v" "X4_6v"
"X4<5>v" "X4_5v"
"X4<4>v" "X4_4v"
"X4<3>v" "X4_3v"
"X4<2>v" "X4_2v"
"X4<1>v" "X4_1v"
"X4<0>v" "X4_0v"
