HEADER
"PSFversion" "1.00"
"net22v" "net22v"
"Av" "Av"
"Bv" "Bv"
"Yv" "Yv"
