HEADER
"PSFversion" "1.00"
"GPv" "GPv"
"Dv" "Dv"
"GNv" "GNv"
"Sv" "Sv"
