HEADER
"PSFversion" "1.00"
"V1n" "UCD_Analog_Parts_vdc_spectre"
"I62n I13<2>n I13<1>n I13<0>n I23<2>n I23<1>n I23<0>n I22<2>n I22<1>n I22<0>n I21<2>n I21<1>n I21<0>n I20<2>n I20<1>n I20<0>n I19<2>n I19<1>n I19<0>n I18<2>n I18<1>n I18<0>n I17<2>n I17<1>n I17<0>n I16<2>n I16<1>n I16<0>n I15<2>n I15<1>n I15<0>n I14<2>n I14<1>n I14<0>n I12n I11n I10n I9n I8n I7n I4n I3n I2n I1n I0n" "inv_1x"
"I28n I27n I26n I25n I24n I29n I30n I31n I32n I33n I34n" "nor_1x"
"I41n" "nand_1x"
"I56n I55n I54n I53n I52n I51n I50n I48n I47n I46n" "TH22"
"I38n I37n I36n I35n I39n I40n I42n I43n I44n I45n" "and_1x"
