HEADER
"PSFversion" "1.00"
"I26n" "and_1x"
"I11n I10n" "TH22"
"I14n I15n" "nor_1x"
"I13n I12n" "or_1x"
"I28n I27n" "inv_1x"
"I7n I6n I1n I0n" "TH33"
"a_ackv" ":1v"
"b_ackv" ":2v"
"out<1>v" ":3v"
"out<0>v" ":4v"
"a<1>v" ":5v"
"a<0>v" ":6v"
"aselv" ":7v"
"b<1>v" ":8v"
"b<0>v" ":9v"
"bselv" ":10v"
"ackv" ":11v"
