HEADER
"PSFversion" "1.00"
"I3n I2n I1n I0n" "_sub119"
"A<3>v" ":1v"
"A<2>v" ":2v"
"A<1>v" ":3v"
"A<0>v" ":4v"
"B0v" ":5v"
"B1v" ":6v"
