HEADER
"PSFversion" "1.00"
"I0n I10n" "TH22"
"I2n" "nor_1x"
"I12n I11n" "inv_1x"
"L0v" ":1v"
"L1v" ":2v"
"Lackv" ":3v"
"Rackv" ":4v"
"~R0v" ":5v"
"~R1v" ":6v"
