HEADER
"PSFversion" "1.00"
"outp<1>v" "outp_1v"
"aselv" "aselv"
"bselv" "bselv"
"outp<0>v" "outp_0v"
"out<1>v" "out_1v"
"out<0>v" "out_0v"
"ap<1>v" "ap_1v"
"b<1>v" "b_1v"
"b<0>v" "b_0v"
"a<0>v" "a_0v"
"b_ackv" "b_ackv"
"~out<0>v" "\\~out_0v"
"ap<0>v" "ap_0v"
"ackv" "ackv"
"a<1>v" "a_1v"
"bp<0>v" "bp_0v"
"~out<1>v" "\\~out_1v"
"a_ackv" "a_ackv"
"bp<1>v" "bp_1v"
