HEADER
"PSFversion" "1.00"
"I0n I1n I2n I3n I4n I5n I6n I7n" "_sub122"
"I11n I10n I9n I8n" "TH22"
"I17n I16n I15n I14n" "nand_1x"
"I21n I20n I19n I18n" "inv_1x"
"I13n I12n" "and4_1x"
"a<3>v" ":1v"
"a<2>v" ":2v"
"a<1>v" ":3v"
"a<0>v" ":4v"
"a_ackv" ":5v"
"ackv" ":6v"
"aselv" ":7v"
"b<3>v" ":8v"
"b<2>v" ":9v"
"b<1>v" ":10v"
"b<0>v" ":11v"
"b_ackv" ":12v"
"bselv" ":13v"
"out<3>v" ":14v"
"out<2>v" ":15v"
"out<1>v" ":16v"
"out<0>v" ":17v"
