HEADER
"PSFversion" "1.00"
"Write<0>v" "Write_0v"
"W_Addr<19>v" "W_Addr_19v"
"W_Addr<18>v" "W_Addr_18v"
"W_Addr<17>v" "W_Addr_17v"
"W_Addr<16>v" "W_Addr_16v"
"Addr<19>v" "Addr_19v"
"Addr<18>v" "Addr_18v"
"Addr<17>v" "Addr_17v"
"Addr<16>v" "Addr_16v"
"Addr<15>v" "Addr_15v"
"Addr<14>v" "Addr_14v"
"Addr<13>v" "Addr_13v"
"Addr<12>v" "Addr_12v"
"Addr<11>v" "Addr_11v"
"Addr<10>v" "Addr_10v"
"Addr<9>v" "Addr_9v"
"Addr<8>v" "Addr_8v"
"Addr<7>v" "Addr_7v"
"Addr<6>v" "Addr_6v"
"Addr<5>v" "Addr_5v"
"Addr<4>v" "Addr_4v"
"Addr<3>v" "Addr_3v"
"Addr<2>v" "Addr_2v"
"Addr<1>v" "Addr_1v"
"Addr<0>v" "Addr_0v"
"R_Addr<19>v" "R_Addr_19v"
"R_Addr<18>v" "R_Addr_18v"
"R_Addr<17>v" "R_Addr_17v"
"R_Addr<16>v" "R_Addr_16v"
"R_Addr<15>v" "R_Addr_15v"
"R_Addr<14>v" "R_Addr_14v"
"R_Addr<13>v" "R_Addr_13v"
"R_Addr<12>v" "R_Addr_12v"
"R_Addr<11>v" "R_Addr_11v"
"R_Addr<10>v" "R_Addr_10v"
"R_Addr<9>v" "R_Addr_9v"
"R_Addr<8>v" "R_Addr_8v"
"R_Addr<7>v" "R_Addr_7v"
"R_Addr<6>v" "R_Addr_6v"
"R_Addr<5>v" "R_Addr_5v"
"R_Addr<4>v" "R_Addr_4v"
"R_Addr<3>v" "R_Addr_3v"
"R_Addr<2>v" "R_Addr_2v"
"R_Addr<1>v" "R_Addr_1v"
"R_Addr<0>v" "R_Addr_0v"
"WAddr_Ack<4>v" "WAddr_Ack_4v"
"WAddr_Ack<3>v" "WAddr_Ack_3v"
"WAddr_Ack<2>v" "WAddr_Ack_2v"
"WAddr_Ack<1>v" "WAddr_Ack_1v"
"WAddr_Ack<0>v" "WAddr_Ack_0v"
"RAddr_Ack<3>v" "RAddr_Ack_3v"
"RAddr_Ack<2>v" "RAddr_Ack_2v"
"RAddr_Ack<1>v" "RAddr_Ack_1v"
"RAddr_Ack<0>v" "RAddr_Ack_0v"
"RAddr_Ack<4>v" "RAddr_Ack_4v"
"Ack<3>v" "Ack_3v"
"Ack<2>v" "Ack_2v"
"Ack<1>v" "Ack_1v"
"Ack<0>v" "Ack_0v"
"Ack<4>v" "Ack_4v"
"Write_Ackv" "Write_Ackv"
"Read_Ackv" "Read_Ackv"
"RW<1>v" "RW_1v"
"RW<0>v" "RW_0v"
"Write<1>v" "Write_1v"
"W_Addr<3>v" "W_Addr_3v"
"W_Addr<2>v" "W_Addr_2v"
"W_Addr<1>v" "W_Addr_1v"
"W_Addr<0>v" "W_Addr_0v"
"W_Addr<7>v" "W_Addr_7v"
"W_Addr<6>v" "W_Addr_6v"
"W_Addr<5>v" "W_Addr_5v"
"W_Addr<4>v" "W_Addr_4v"
"W_Addr<11>v" "W_Addr_11v"
"W_Addr<10>v" "W_Addr_10v"
"W_Addr<9>v" "W_Addr_9v"
"W_Addr<8>v" "W_Addr_8v"
"W_Addr<15>v" "W_Addr_15v"
"W_Addr<14>v" "W_Addr_14v"
"W_Addr<13>v" "W_Addr_13v"
"W_Addr<12>v" "W_Addr_12v"
"Read<1>v" "Read_1v"
"Read<0>v" "Read_0v"
"RW_Ackv" "RW_Ackv"
