HEADER
"PSFversion" "1.00"
"B_Ack<3>v" "B_Ack_3v"
"B_Ack<2>v" "B_Ack_2v"
"B_Ack<1>v" "B_Ack_1v"
"B_Ack<0>v" "B_Ack_0v"
"A1_1of4<3>v" "A1_1of4_3v"
"A1_1of4<2>v" "A1_1of4_2v"
"A1_1of4<1>v" "A1_1of4_1v"
"A1_1of4<0>v" "A1_1of4_0v"
"B3_1of4<3>v" "B3_1of4_3v"
"B3_1of4<2>v" "B3_1of4_2v"
"B3_1of4<1>v" "B3_1of4_1v"
"B3_1of4<0>v" "B3_1of4_0v"
"B4_1of4<3>v" "B4_1of4_3v"
"B4_1of4<2>v" "B4_1of4_2v"
"B4_1of4<1>v" "B4_1of4_1v"
"B4_1of4<0>v" "B4_1of4_0v"
"A4_1of4<3>v" "A4_1of4_3v"
"A4_1of4<2>v" "A4_1of4_2v"
"A4_1of4<1>v" "A4_1of4_1v"
"A4_1of4<0>v" "A4_1of4_0v"
"A3_1of4<3>v" "A3_1of4_3v"
"A3_1of4<2>v" "A3_1of4_2v"
"A3_1of4<1>v" "A3_1of4_1v"
"A3_1of4<0>v" "A3_1of4_0v"
"B2_1of4<3>v" "B2_1of4_3v"
"B2_1of4<2>v" "B2_1of4_2v"
"B2_1of4<1>v" "B2_1of4_1v"
"B2_1of4<0>v" "B2_1of4_0v"
"A_Ack<3>v" "A_Ack_3v"
"A_Ack<2>v" "A_Ack_2v"
"A_Ack<1>v" "A_Ack_1v"
"A_Ack<0>v" "A_Ack_0v"
"C4_1of4<3>v" "C4_1of4_3v"
"C4_1of4<2>v" "C4_1of4_2v"
"C4_1of4<1>v" "C4_1of4_1v"
"C4_1of4<0>v" "C4_1of4_0v"
"A2_1of4<3>v" "A2_1of4_3v"
"A2_1of4<2>v" "A2_1of4_2v"
"A2_1of4<1>v" "A2_1of4_1v"
"A2_1of4<0>v" "A2_1of4_0v"
"C1_1of4<3>v" "C1_1of4_3v"
"C1_1of4<2>v" "C1_1of4_2v"
"C1_1of4<1>v" "C1_1of4_1v"
"C1_1of4<0>v" "C1_1of4_0v"
"Aselv" "Aselv"
"C2_1of4<3>v" "C2_1of4_3v"
"C2_1of4<2>v" "C2_1of4_2v"
"C2_1of4<1>v" "C2_1of4_1v"
"C2_1of4<0>v" "C2_1of4_0v"
"B1_1of4<3>v" "B1_1of4_3v"
"B1_1of4<2>v" "B1_1of4_2v"
"B1_1of4<1>v" "B1_1of4_1v"
"B1_1of4<0>v" "B1_1of4_0v"
"C3_1of4<3>v" "C3_1of4_3v"
"C3_1of4<2>v" "C3_1of4_2v"
"C3_1of4<1>v" "C3_1of4_1v"
"C3_1of4<0>v" "C3_1of4_0v"
"Bselv" "Bselv"
"C_Ack<0>v" "C_Ack_0v"
"C_Ack<3>v" "C_Ack_3v"
"C_Ack<2>v" "C_Ack_2v"
"C_Ack<1>v" "C_Ack_1v"
