HEADER
"PSFversion" "1.00"
"IDATAn" "_sub121"
"ICHUNKn" "_sub128"
"IMUXn" "_sub129"
"V1n V0n" "UCD_Analog_Parts_vdc_spectre"
"I15<1>v" "I15_1v"
"I15<0>v" "I15_0v"
"I11<7>v" "I11_7v"
"I11<6>v" "I11_6v"
"I11<5>v" "I11_5v"
"I11<4>v" "I11_4v"
"I11<3>v" "I11_3v"
"I11<2>v" "I11_2v"
"I11<1>v" "I11_1v"
"I11<0>v" "I11_0v"
"I20<15>v" "I20_15v"
"I20<14>v" "I20_14v"
"I20<13>v" "I20_13v"
"I20<12>v" "I20_12v"
"I20<11>v" "I20_11v"
"I20<10>v" "I20_10v"
"I20<9>v" "I20_9v"
"I20<8>v" "I20_8v"
"I20<7>v" "I20_7v"
"I20<6>v" "I20_6v"
"I20<5>v" "I20_5v"
"I20<4>v" "I20_4v"
"I20<3>v" "I20_3v"
"I20<2>v" "I20_2v"
"I20<1>v" "I20_1v"
"I20<0>v" "I20_0v"
"I9<1>v" "I9_1v"
"I9<0>v" "I9_0v"
"I13<1>v" "I13_1v"
"I13<0>v" "I13_0v"
"I5<7>v" "I5_7v"
"I5<6>v" "I5_6v"
"I5<5>v" "I5_5v"
"I5<4>v" "I5_4v"
"I5<3>v" "I5_3v"
"I5<2>v" "I5_2v"
"I5<1>v" "I5_1v"
"I5<0>v" "I5_0v"
"I17n I15<1>n I15<0>n I11<7>n I11<6>n I11<5>n I11<4>n I11<3>n I11<2>n I11<1>n I11<0>n I20<15>n I20<14>n I20<13>n I20<12>n I20<11>n I20<10>n I20<9>n I20<8>n I20<7>n I20<6>n I20<5>n I20<4>n I20<3>n I20<2>n I20<1>n I20<0>n I9<1>n I9<0>n I13<1>n I13<0>n I5<7>n I5<6>n I5<5>n I5<4>n I5<3>n I5<2>n I5<1>n I5<0>n" "inv_1xt"
"I23n I18n" "inv_1x"
