HEADER
"PSFversion" "1.00"
"I36n" "_sub101"
"ICHUNKn" "_sub108"
"IMUXn" "_sub109"
"V1n V0n" "UCD_Analog_Parts_vdc_spectre"
"I53<4>v" "I53_4v"
"IDATAn" "_sub111"
"I53<3>v" "I53_3v"
"I53<2>v" "I53_2v"
"I53<1>v" "I53_1v"
"I53<0>v" "I53_0v"
"I54<19>v" "I54_19v"
"I54<18>v" "I54_18v"
"I54<17>v" "I54_17v"
"I54<16>v" "I54_16v"
"I54<15>v" "I54_15v"
"I54<14>v" "I54_14v"
"I54<13>v" "I54_13v"
"I54<12>v" "I54_12v"
"I54<11>v" "I54_11v"
"I54<10>v" "I54_10v"
"I54<9>v" "I54_9v"
"I54<8>v" "I54_8v"
"I54<7>v" "I54_7v"
"I54<6>v" "I54_6v"
"I54<5>v" "I54_5v"
"I54<4>v" "I54_4v"
"I54<3>v" "I54_3v"
"I54<2>v" "I54_2v"
"I54<1>v" "I54_1v"
"I54<0>v" "I54_0v"
"I52<1>v" "I52_1v"
"I52<0>v" "I52_0v"
"I47<1>v" "I47_1v"
"I47<0>v" "I47_0v"
"I45<19>v" "I45_19v"
"I45<18>v" "I45_18v"
"I45<17>v" "I45_17v"
"I45<16>v" "I45_16v"
"I45<15>v" "I45_15v"
"I45<14>v" "I45_14v"
"I45<13>v" "I45_13v"
"I45<12>v" "I45_12v"
"I45<11>v" "I45_11v"
"I45<10>v" "I45_10v"
"I45<9>v" "I45_9v"
"I45<8>v" "I45_8v"
"I45<7>v" "I45_7v"
"I45<6>v" "I45_6v"
"I45<5>v" "I45_5v"
"I45<4>v" "I45_4v"
"I45<3>v" "I45_3v"
"I45<2>v" "I45_2v"
"I45<1>v" "I45_1v"
"I45<0>v" "I45_0v"
"I46<4>v" "I46_4v"
"I46<3>v" "I46_3v"
"I46<2>v" "I46_2v"
"I46<1>v" "I46_1v"
"I46<0>v" "I46_0v"
"I11<7>v" "I11_7v"
"I11<6>v" "I11_6v"
"I11<5>v" "I11_5v"
"I11<4>v" "I11_4v"
"I11<3>v" "I11_3v"
"I11<2>v" "I11_2v"
"I11<1>v" "I11_1v"
"I11<0>v" "I11_0v"
"I9<1>v" "I9_1v"
"I9<0>v" "I9_0v"
"I13<1>v" "I13_1v"
"I13<0>v" "I13_0v"
"I5<7>v" "I5_7v"
"I5<6>v" "I5_6v"
"I5<5>v" "I5_5v"
"I5<4>v" "I5_4v"
"I5<3>v" "I5_3v"
"I5<2>v" "I5_2v"
"I5<1>v" "I5_1v"
"I5<0>v" "I5_0v"
"I18<5>v" "I18_5v"
"I53<4>n I53<3>n I53<2>n I53<1>n I53<0>n I54<19>n I54<18>n I54<17>n I54<16>n I54<15>n I54<14>n I54<13>n I54<12>n I54<11>n I54<10>n I54<9>n I54<8>n I54<7>n I54<6>n I54<5>n I54<4>n I54<3>n I54<2>n I54<1>n I54<0>n I52<1>n I52<0>n I51n I48n I47<1>n I47<0>n I45<19>n I45<18>n I45<17>n I45<16>n I45<15>n I45<14>n I45<13>n I45<12>n I45<11>n I45<10>n I45<9>n I45<8>n I45<7>n I45<6>n I45<5>n I45<4>n I45<3>n I45<2>n I45<1>n I45<0>n I46<4>n I46<3>n I46<2>n I46<1>n I46<0>n I11<7>n I11<6>n I11<5>n I11<4>n I11<3>n I11<2>n I11<1>n I11<0>n I9<1>n I9<0>n I13<1>n I13<0>n I5<7>n I5<6>n I5<5>n I5<4>n I5<3>n I5<2>n I5<1>n I5<0>n" "inv_1xt"
"I18<4>v" "I18_4v"
"I18<3>v" "I18_3v"
"I18<2>v" "I18_2v"
"I18<1>v" "I18_1v"
"I18<0>v" "I18_0v"
"I18<5>n I18<4>n I18<3>n I18<2>n I18<1>n I18<0>n" "inv_1x"
