HEADER
"PSFversion" "1.00"
"net28v" "net28v"
"b_ackv" "b_ackv"
"aselv" "aselv"
"bselv" "bselv"
"out<1>v" "out_1v"
"out<0>v" "out_0v"
"net41v" "net41v"
"net29v" "net29v"
"a<1>v" "a_1v"
"b<1>v" "b_1v"
"a_ackv" "a_ackv"
"a<0>v" "a_0v"
"net22v" "net22v"
"net26v" "net26v"
"net42v" "net42v"
"net21v" "net21v"
"b<0>v" "b_0v"
"ackv" "ackv"
"net31v" "net31v"
