HEADER
"PSFversion" "1.00"
"net055<0>v" "net055_0v"
"net055<1>v" "net055_1v"
"net055<2>v" "net055_2v"
"net055<3>v" "net055_3v"
"net055<4>v" "net055_4v"
"W_AddressT<19>v" "W_AddressT_19v"
"W_AddressT<18>v" "W_AddressT_18v"
"W_AddressT<17>v" "W_AddressT_17v"
"W_AddressT<16>v" "W_AddressT_16v"
"W_AddressT<15>v" "W_AddressT_15v"
"W_AddressT<14>v" "W_AddressT_14v"
"W_AddressT<13>v" "W_AddressT_13v"
"W_AddressT<12>v" "W_AddressT_12v"
"W_AddressT<11>v" "W_AddressT_11v"
"W_AddressT<10>v" "W_AddressT_10v"
"W_AddressT<9>v" "W_AddressT_9v"
"W_AddressT<8>v" "W_AddressT_8v"
"W_AddressT<7>v" "W_AddressT_7v"
"W_AddressT<6>v" "W_AddressT_6v"
"W_AddressT<5>v" "W_AddressT_5v"
"W_AddressT<4>v" "W_AddressT_4v"
"W_AddressT<3>v" "W_AddressT_3v"
"W_AddressT<2>v" "W_AddressT_2v"
"W_AddressT<1>v" "W_AddressT_1v"
"W_AddressT<0>v" "W_AddressT_0v"
"AT<7>v" "AT_7v"
"AT<6>v" "AT_6v"
"AT<5>v" "AT_5v"
"AT<4>v" "AT_4v"
"AT<15>v" "AT_15v"
"AT<14>v" "AT_14v"
"AT<13>v" "AT_13v"
"AT<12>v" "AT_12v"
"net036<0>v" "net036_0v"
"net036<1>v" "net036_1v"
"W_Address_AckT<4>v" "W_Address_AckT_4v"
"W_Address_AckT<3>v" "W_Address_AckT_3v"
"W_Address_AckT<2>v" "W_Address_AckT_2v"
"W_Address_AckT<1>v" "W_Address_AckT_1v"
"W_Address_AckT<0>v" "W_Address_AckT_0v"
"WDataT<7>v" "WDataT_7v"
"WDataT<6>v" "WDataT_6v"
"WDataT<5>v" "WDataT_5v"
"WDataT<4>v" "WDataT_4v"
"WDataT<3>v" "WDataT_3v"
"WDataT<2>v" "WDataT_2v"
"WDataT<1>v" "WDataT_1v"
"WDataT<0>v" "WDataT_0v"
"AT<3>v" "AT_3v"
"AT<2>v" "AT_2v"
"AT<1>v" "AT_1v"
"AT<0>v" "AT_0v"
"AT<16>v" "AT_16v"
"net44<0>v" "net44_0v"
"net44<1>v" "net44_1v"
"net44<2>v" "net44_2v"
"net44<3>v" "net44_3v"
"net44<4>v" "net44_4v"
"net44<5>v" "net44_5v"
"net44<6>v" "net44_6v"
"net44<7>v" "net44_7v"
"net41<0>v" "net41_0v"
"net41<1>v" "net41_1v"
"B1_1<3>v" "B1_1_3v"
"B1_1<2>v" "B1_1_2v"
"B1_1<1>v" "B1_1_1v"
"B1_1<0>v" "B1_1_0v"
"net57v" "net57v"
"G01v" "G01v"
"W0_1<3>v" "W0_1_3v"
"W0_1<2>v" "W0_1_2v"
"W0_1<1>v" "W0_1_1v"
"W0_1<0>v" "W0_1_0v"
"B0_1<3>v" "B0_1_3v"
"B0_1<2>v" "B0_1_2v"
"B0_1<1>v" "B0_1_1v"
"B0_1<0>v" "B0_1_0v"
"net56v" "net56v"
"net060<0>v" "net060_0v"
"net060<1>v" "net060_1v"
"net060<2>v" "net060_2v"
"net060<3>v" "net060_3v"
"net060<4>v" "net060_4v"
"net060<5>v" "net060_5v"
"net060<6>v" "net060_6v"
"net060<7>v" "net060_7v"
"net060<8>v" "net060_8v"
"net060<9>v" "net060_9v"
"net060<10>v" "net060_10v"
"net060<11>v" "net060_11v"
"net060<12>v" "net060_12v"
"net060<13>v" "net060_13v"
"net060<14>v" "net060_14v"
"net060<15>v" "net060_15v"
"net060<16>v" "net060_16v"
"net060<17>v" "net060_17v"
"net060<18>v" "net060_18v"
"net060<19>v" "net060_19v"
"net049<0>v" "net049_0v"
"net049<1>v" "net049_1v"
"net049<2>v" "net049_2v"
"net049<3>v" "net049_3v"
"net049<4>v" "net049_4v"
"net049<5>v" "net049_5v"
"net049<6>v" "net049_6v"
"net049<7>v" "net049_7v"
"net049<8>v" "net049_8v"
"net049<9>v" "net049_9v"
"net049<10>v" "net049_10v"
"net049<11>v" "net049_11v"
"net049<12>v" "net049_12v"
"net049<13>v" "net049_13v"
"net049<14>v" "net049_14v"
"net049<15>v" "net049_15v"
"net049<16>v" "net049_16v"
"net049<17>v" "net049_17v"
"net049<18>v" "net049_18v"
"net049<19>v" "net049_19v"
"WdataAckT<1>v" "WdataAckT_1v"
"WdataAckT<0>v" "WdataAckT_0v"
"Acko<5>v" "Acko_5v"
"Acko<4>v" "Acko_4v"
"Acko<3>v" "Acko_3v"
"Acko<2>v" "Acko_2v"
"Acko<1>v" "Acko_1v"
"Acko<0>v" "Acko_0v"
"W1_1<3>v" "W1_1_3v"
"W1_1<2>v" "W1_1_2v"
"W1_1<1>v" "W1_1_1v"
"W1_1<0>v" "W1_1_0v"
"net027<0>v" "net027_0v"
"net027<1>v" "net027_1v"
"net027<2>v" "net027_2v"
"net027<3>v" "net027_3v"
"net027<4>v" "net027_4v"
"net027<5>v" "net027_5v"
"net027<6>v" "net027_6v"
"net027<7>v" "net027_7v"
"AT<19>v" "AT_19v"
"AT<18>v" "AT_18v"
"AT<17>v" "AT_17v"
"AT<11>v" "AT_11v"
"AT<10>v" "AT_10v"
"AT<9>v" "AT_9v"
"AT<8>v" "AT_8v"
"S<7>v" "S_7v"
"S<6>v" "S_6v"
"S<5>v" "S_5v"
"S<4>v" "S_4v"
"S<3>v" "S_3v"
"S<2>v" "S_2v"
"S<1>v" "S_1v"
"S<0>v" "S_0v"
"~WriteAckv" "\\~WriteAckv"
"RDataT<7>v" "RDataT_7v"
"RDataT<6>v" "RDataT_6v"
"RDataT<5>v" "RDataT_5v"
"RDataT<4>v" "RDataT_4v"
"RW<1>v" "RW_1v"
"RW<0>v" "RW_0v"
"RdataAckT<1>v" "RdataAckT_1v"
"RdataAckT<0>v" "RdataAckT_0v"
"RDataT<3>v" "RDataT_3v"
"RDataT<2>v" "RDataT_2v"
"RDataT<1>v" "RDataT_1v"
"RDataT<0>v" "RDataT_0v"
"~RRW<1>v" "\\~RRW_1v"
"~RRW<0>v" "\\~RRW_0v"
"R_AddressT<19>v" "R_AddressT_19v"
"R_AddressT<18>v" "R_AddressT_18v"
"R_AddressT<17>v" "R_AddressT_17v"
"R_AddressT<16>v" "R_AddressT_16v"
"R_AddressT<15>v" "R_AddressT_15v"
"R_AddressT<14>v" "R_AddressT_14v"
"R_AddressT<13>v" "R_AddressT_13v"
"R_AddressT<12>v" "R_AddressT_12v"
"R_AddressT<11>v" "R_AddressT_11v"
"R_AddressT<10>v" "R_AddressT_10v"
"R_AddressT<9>v" "R_AddressT_9v"
"R_AddressT<8>v" "R_AddressT_8v"
"R_AddressT<7>v" "R_AddressT_7v"
"R_AddressT<6>v" "R_AddressT_6v"
"R_AddressT<5>v" "R_AddressT_5v"
"R_AddressT<4>v" "R_AddressT_4v"
"R_AddressT<3>v" "R_AddressT_3v"
"R_AddressT<2>v" "R_AddressT_2v"
"R_AddressT<1>v" "R_AddressT_1v"
"R_AddressT<0>v" "R_AddressT_0v"
"Aline<63>v" "Aline_63v"
"Aline<62>v" "Aline_62v"
"Aline<61>v" "Aline_61v"
"Aline<60>v" "Aline_60v"
"Aline<59>v" "Aline_59v"
"Aline<58>v" "Aline_58v"
"Aline<57>v" "Aline_57v"
"Aline<56>v" "Aline_56v"
"Aline<55>v" "Aline_55v"
"Aline<54>v" "Aline_54v"
"Aline<53>v" "Aline_53v"
"Aline<52>v" "Aline_52v"
"Aline<51>v" "Aline_51v"
"Aline<50>v" "Aline_50v"
"Aline<49>v" "Aline_49v"
"Aline<48>v" "Aline_48v"
"Aline<47>v" "Aline_47v"
"Aline<46>v" "Aline_46v"
"Aline<45>v" "Aline_45v"
"Aline<44>v" "Aline_44v"
"Aline<43>v" "Aline_43v"
"Aline<42>v" "Aline_42v"
"Aline<41>v" "Aline_41v"
"Aline<40>v" "Aline_40v"
"Aline<39>v" "Aline_39v"
"Aline<38>v" "Aline_38v"
"Aline<37>v" "Aline_37v"
"Aline<36>v" "Aline_36v"
"Aline<35>v" "Aline_35v"
"Aline<34>v" "Aline_34v"
"Aline<33>v" "Aline_33v"
"Aline<32>v" "Aline_32v"
"Aline<31>v" "Aline_31v"
"Aline<30>v" "Aline_30v"
"Aline<29>v" "Aline_29v"
"Aline<28>v" "Aline_28v"
"Aline<27>v" "Aline_27v"
"Aline<26>v" "Aline_26v"
"Aline<25>v" "Aline_25v"
"Aline<24>v" "Aline_24v"
"Aline<23>v" "Aline_23v"
"Aline<22>v" "Aline_22v"
"Aline<21>v" "Aline_21v"
"Aline<20>v" "Aline_20v"
"Aline<19>v" "Aline_19v"
"Aline<18>v" "Aline_18v"
"Aline<17>v" "Aline_17v"
"Aline<16>v" "Aline_16v"
"Aline<15>v" "Aline_15v"
"Aline<14>v" "Aline_14v"
"Aline<13>v" "Aline_13v"
"Aline<12>v" "Aline_12v"
"Aline<11>v" "Aline_11v"
"Aline<10>v" "Aline_10v"
"Aline<9>v" "Aline_9v"
"Aline<8>v" "Aline_8v"
"Aline<7>v" "Aline_7v"
"Aline<6>v" "Aline_6v"
"Aline<5>v" "Aline_5v"
"Aline<4>v" "Aline_4v"
"Aline<3>v" "Aline_3v"
"Aline<2>v" "Aline_2v"
"Aline<1>v" "Aline_1v"
"Aline<0>v" "Aline_0v"
"net58v" "net58v"
"~ReadAckv" "\\~ReadAckv"
"DataAckv" "DataAckv"
"WRWT<1>v" "WRWT_1v"
"WRWT<0>v" "WRWT_0v"
"ReadAckTv" "ReadAckTv"
"net048<0>v" "net048_0v"
"net048<1>v" "net048_1v"
"net048<2>v" "net048_2v"
"net048<3>v" "net048_3v"
"net048<4>v" "net048_4v"
"WriteAckTv" "WriteAckTv"
"net045<0>v" "net045_0v"
"net045<1>v" "net045_1v"
"net045<2>v" "net045_2v"
"net045<3>v" "net045_3v"
"net045<4>v" "net045_4v"
"ValAddrv" "ValAddrv"
"net046<0>v" "net046_0v"
"net046<1>v" "net046_1v"
"~R0_1<3>v" "\\~R0_1_3v"
"~R0_1<2>v" "\\~R0_1_2v"
"~R0_1<1>v" "\\~R0_1_1v"
"~R0_1<0>v" "\\~R0_1_0v"
"~R1_1<3>v" "\\~R1_1_3v"
"~R1_1<2>v" "\\~R1_1_2v"
"~R1_1<1>v" "\\~R1_1_1v"
"~R1_1<0>v" "\\~R1_1_0v"
"net064<0>v" "net064_0v"
"net064<1>v" "net064_1v"
"gnd!v" "0v"
"vdd!v" "vdd!v"
"vcc!v" "vcc!v"
