HEADER
"PSFversion" "1.00"
"~R0_1<3>v" "\\~R0_1_3v"
"~R0_1<2>v" "\\~R0_1_2v"
"~R0_1<1>v" "\\~R0_1_1v"
"~R0_1<0>v" "\\~R0_1_0v"
"net54<0>v" "net54_0v"
"net54<1>v" "net54_1v"
"net54<2>v" "net54_2v"
"net54<3>v" "net54_3v"
"net54<4>v" "net54_4v"
"net54<5>v" "net54_5v"
"net54<6>v" "net54_6v"
"net54<7>v" "net54_7v"
"net54<8>v" "net54_8v"
"net54<9>v" "net54_9v"
"net54<10>v" "net54_10v"
"net54<11>v" "net54_11v"
"net54<12>v" "net54_12v"
"net54<13>v" "net54_13v"
"net54<14>v" "net54_14v"
"net54<15>v" "net54_15v"
"net54<16>v" "net54_16v"
"net54<17>v" "net54_17v"
"net54<18>v" "net54_18v"
"net54<19>v" "net54_19v"
"net54<20>v" "net54_20v"
"net54<21>v" "net54_21v"
"net54<22>v" "net54_22v"
"net54<23>v" "net54_23v"
"net54<24>v" "net54_24v"
"net54<25>v" "net54_25v"
"net54<26>v" "net54_26v"
"net54<27>v" "net54_27v"
"net54<28>v" "net54_28v"
"net54<29>v" "net54_29v"
"net54<30>v" "net54_30v"
"net54<31>v" "net54_31v"
"net54<32>v" "net54_32v"
"net54<33>v" "net54_33v"
"net54<34>v" "net54_34v"
"net54<35>v" "net54_35v"
"net54<36>v" "net54_36v"
"net54<37>v" "net54_37v"
"net54<38>v" "net54_38v"
"net54<39>v" "net54_39v"
"net54<40>v" "net54_40v"
"net54<41>v" "net54_41v"
"net54<42>v" "net54_42v"
"net54<43>v" "net54_43v"
"net54<44>v" "net54_44v"
"net54<45>v" "net54_45v"
"net54<46>v" "net54_46v"
"net54<47>v" "net54_47v"
"net54<48>v" "net54_48v"
"net54<49>v" "net54_49v"
"net54<50>v" "net54_50v"
"net54<51>v" "net54_51v"
"net54<52>v" "net54_52v"
"net54<53>v" "net54_53v"
"net54<54>v" "net54_54v"
"net54<55>v" "net54_55v"
"net54<56>v" "net54_56v"
"net54<57>v" "net54_57v"
"net54<58>v" "net54_58v"
"net54<59>v" "net54_59v"
"net54<60>v" "net54_60v"
"net54<61>v" "net54_61v"
"net54<62>v" "net54_62v"
"net54<63>v" "net54_63v"
"W0_1<3>v" "W0_1_3v"
"W0_1<2>v" "W0_1_2v"
"W0_1<1>v" "W0_1_1v"
"W0_1<0>v" "W0_1_0v"
"net42<0>v" "net42_0v"
"net42<1>v" "net42_1v"
"net42<2>v" "net42_2v"
"net42<3>v" "net42_3v"
"net42<4>v" "net42_4v"
"net42<5>v" "net42_5v"
"net42<6>v" "net42_6v"
"net42<7>v" "net42_7v"
"AckTv" "AckTv"
"Env" "Env"
"ValAddrv" "ValAddrv"
"net020v" "net020v"
"RWT<1>v" "RWT_1v"
"RWT<0>v" "RWT_0v"
"net031<0>v" "net031_0v"
"net031<1>v" "net031_1v"
"net031<2>v" "net031_2v"
"net031<3>v" "net031_3v"
"net031<4>v" "net031_4v"
"net031<5>v" "net031_5v"
"net031<6>v" "net031_6v"
"net031<7>v" "net031_7v"
"net031<8>v" "net031_8v"
"net031<9>v" "net031_9v"
"net031<10>v" "net031_10v"
"net031<11>v" "net031_11v"
"net031<12>v" "net031_12v"
"net031<13>v" "net031_13v"
"net031<14>v" "net031_14v"
"net031<15>v" "net031_15v"
"net58v" "net58v"
"RAckT<1>v" "RAckT_1v"
"RAckT<0>v" "RAckT_0v"
"net28v" "net28v"
"net55<0>v" "net55_0v"
"net55<1>v" "net55_1v"
"net55<2>v" "net55_2v"
"net55<3>v" "net55_3v"
"net55<4>v" "net55_4v"
"net55<5>v" "net55_5v"
"net55<6>v" "net55_6v"
"net55<7>v" "net55_7v"
"net56v" "net56v"
"net021v" "net021v"
"net41<0>v" "net41_0v"
"net41<1>v" "net41_1v"
"WDataT<7>v" "WDataT_7v"
"WDataT<6>v" "WDataT_6v"
"WDataT<5>v" "WDataT_5v"
"WDataT<4>v" "WDataT_4v"
"net57v" "net57v"
"W1_1<3>v" "W1_1_3v"
"W1_1<2>v" "W1_1_2v"
"W1_1<1>v" "W1_1_1v"
"W1_1<0>v" "W1_1_0v"
"B0_1<3>v" "B0_1_3v"
"B0_1<2>v" "B0_1_2v"
"B0_1<1>v" "B0_1_1v"
"B0_1<0>v" "B0_1_0v"
"B1_1<3>v" "B1_1_3v"
"B1_1<2>v" "B1_1_2v"
"B1_1<1>v" "B1_1_1v"
"B1_1<0>v" "B1_1_0v"
"~R1_1<3>v" "\\~R1_1_3v"
"~R1_1<2>v" "\\~R1_1_2v"
"~R1_1<1>v" "\\~R1_1_1v"
"~R1_1<0>v" "\\~R1_1_0v"
"WDataT<3>v" "WDataT_3v"
"WDataT<2>v" "WDataT_2v"
"WDataT<1>v" "WDataT_1v"
"WDataT<0>v" "WDataT_0v"
"RDataT<7>v" "RDataT_7v"
"RDataT<6>v" "RDataT_6v"
"RDataT<5>v" "RDataT_5v"
"RDataT<4>v" "RDataT_4v"
"RDataT<3>v" "RDataT_3v"
"RDataT<2>v" "RDataT_2v"
"RDataT<1>v" "RDataT_1v"
"RDataT<0>v" "RDataT_0v"
"net40<0>v" "net40_0v"
"net40<1>v" "net40_1v"
"AT<3>v" "AT_3v"
"AT<2>v" "AT_2v"
"AT<1>v" "AT_1v"
"AT<0>v" "AT_0v"
"AT<7>v" "AT_7v"
"AT<6>v" "AT_6v"
"AT<5>v" "AT_5v"
"AT<4>v" "AT_4v"
"AT<11>v" "AT_11v"
"AT<10>v" "AT_10v"
"AT<9>v" "AT_9v"
"AT<8>v" "AT_8v"
"net036<0>v" "net036_0v"
"net036<1>v" "net036_1v"
"G01v" "G01v"
"AT<15>v" "AT_15v"
"AT<14>v" "AT_14v"
"AT<13>v" "AT_13v"
"AT<12>v" "AT_12v"
"net44<0>v" "net44_0v"
"net44<1>v" "net44_1v"
"net44<2>v" "net44_2v"
"net44<3>v" "net44_3v"
"net44<4>v" "net44_4v"
"net44<5>v" "net44_5v"
"net44<6>v" "net44_6v"
"net44<7>v" "net44_7v"
"WAckT<1>v" "WAckT_1v"
"WAckT<0>v" "WAckT_0v"
"gnd!v" "0v"
"vdd!v" "vdd!v"
"vcc!v" "vcc!v"
