HEADER
"PSFversion" "1.00"
"I14n I15n" "nand_1x"
"I11n I10n" "TH22"
"I12n I13n" "nor_1x"
"I25n I24n I23n I22n I21n I20n" "inv_1x"
"I6n I0n I1n I7n" "TH33"
"a<1>v" ":1v"
"a<0>v" ":2v"
"a_ackv" ":3v"
"ackv" ":4v"
"aselv" ":5v"
"b<1>v" ":6v"
"b<0>v" ":7v"
"b_ackv" ":8v"
"bselv" ":9v"
"out<1>v" ":10v"
"out<0>v" ":11v"
