HEADER
"PSFversion" "1.00"
"B1<3>v" "B1_3v"
"B1<2>v" "B1_2v"
"B1<1>v" "B1_1v"
"B1<0>v" "B1_0v"
"Read_1of4<3>v" "Read_1of4_3v"
"Read_1of4<2>v" "Read_1of4_2v"
"Read_1of4<1>v" "Read_1of4_1v"
"Read_1of4<0>v" "Read_1of4_0v"
"ValAddrv" "ValAddrv"
"RW<1>v" "RW_1v"
"RW<0>v" "RW_0v"
"R1q<3>v" "R1q_3v"
"R1q<2>v" "R1q_2v"
"R1q<1>v" "R1q_1v"
"R1q<0>v" "R1q_0v"
"W2_1of4<3>v" "W2_1of4_3v"
"W2_1of4<2>v" "W2_1of4_2v"
"W2_1of4<1>v" "W2_1of4_1v"
"W2_1of4<0>v" "W2_1of4_0v"
"B0<3>v" "B0_3v"
"B0<2>v" "B0_2v"
"B0<1>v" "B0_1v"
"B0<0>v" "B0_0v"
"intRackv" "intRackv"
"Wenv" "Wenv"
"wack<3>v" "wack_3v"
"R0q<3>v" "R0q_3v"
"R0q<2>v" "R0q_2v"
"R0q<1>v" "R0q_1v"
"R0q<0>v" "R0q_0v"
"WAck<0>v" "WAck_0v"
"WAck<1>v" "WAck_1v"
"nB1<1>v" "nB1_1v"
"nB1<0>v" "nB1_0v"
"Lack<3>v" "Lack_3v"
"nB0<1>v" "nB0_1v"
"nB0<0>v" "nB0_0v"
"nB1<3>v" "nB1_3v"
"nB1<2>v" "nB1_2v"
"Lack<2>v" "Lack_2v"
"Gov" "Gov"
"nB0<3>v" "nB0_3v"
"nB0<2>v" "nB0_2v"
"~R1<3>v" "\\~R1_3v"
"~R1<2>v" "\\~R1_2v"
"~R1<1>v" "\\~R1_1v"
"~R1<0>v" "\\~R1_0v"
"RAck<1>v" "RAck_1v"
"RAck<0>v" "RAck_0v"
"W1<3>v" "W1_3v"
"W1<2>v" "W1_2v"
"W1<1>v" "W1_1v"
"W1<0>v" "W1_0v"
"wack<1>v" "wack_1v"
"wack<0>v" "wack_0v"
"Read_1of4<7>v" "Read_1of4_7v"
"Read_1of4<6>v" "Read_1of4_6v"
"Read_1of4<5>v" "Read_1of4_5v"
"Read_1of4<4>v" "Read_1of4_4v"
"wack<2>v" "wack_2v"
"Lack<0>v" "Lack_0v"
"Lack<1>v" "Lack_1v"
"AckThruBotv" "AckThruBotv"
"W0<1>v" "W0_1v"
"W0<0>v" "W0_0v"
"W0<3>v" "W0_3v"
"W0<2>v" "W0_2v"
"R0<3>v" "R0_3v"
"R0<2>v" "R0_2v"
"R0<1>v" "R0_1v"
"R0<0>v" "R0_0v"
"R1<3>v" "R1_3v"
"R1<2>v" "R1_2v"
"R1<1>v" "R1_1v"
"R1<0>v" "R1_0v"
"net057v" "net057v"
"W1_1of4<3>v" "W1_1of4_3v"
"W1_1of4<2>v" "W1_1of4_2v"
"W1_1of4<1>v" "W1_1of4_1v"
"W1_1of4<0>v" "W1_1of4_0v"
"Resetv" "Resetv"
"RpAck<3>v" "RpAck_3v"
"RpAck<2>v" "RpAck_2v"
"RpAck<1>v" "RpAck_1v"
"RpAck<0>v" "RpAck_0v"
"Ackv" "Ackv"
"AckThruTopv" "AckThruTopv"
"~R0<3>v" "\\~R0_3v"
"~R0<2>v" "\\~R0_2v"
"~R0<1>v" "\\~R0_1v"
"~R0<0>v" "\\~R0_0v"
