HEADER
"PSFversion" "1.00"
"Rackv" "Rackv"
"~R1v" "\\~R1v"
"L0v" "L0v"
"Lackv" "Lackv"
"L1v" "L1v"
"~R0v" "\\~R0v"
