HEADER
"PSFversion" "1.00"
"B1_1<3>v" "B1_1_3v"
"B1_1<2>v" "B1_1_2v"
"B1_1<1>v" "B1_1_1v"
"B1_1<0>v" "B1_1_0v"
"net44<0>v" "net44_0v"
"net44<1>v" "net44_1v"
"net44<2>v" "net44_2v"
"net44<3>v" "net44_3v"
"net44<4>v" "net44_4v"
"net44<5>v" "net44_5v"
"net44<6>v" "net44_6v"
"net44<7>v" "net44_7v"
"AckTv" "AckTv"
"net41<0>v" "net41_0v"
"net41<1>v" "net41_1v"
"net031<0>v" "net031_0v"
"net031<1>v" "net031_1v"
"net031<2>v" "net031_2v"
"net031<3>v" "net031_3v"
"net031<4>v" "net031_4v"
"net031<5>v" "net031_5v"
"net031<6>v" "net031_6v"
"net031<7>v" "net031_7v"
"net031<8>v" "net031_8v"
"net031<9>v" "net031_9v"
"net031<10>v" "net031_10v"
"net031<11>v" "net031_11v"
"net031<12>v" "net031_12v"
"net031<13>v" "net031_13v"
"net031<14>v" "net031_14v"
"net031<15>v" "net031_15v"
"net020v" "net020v"
"net56v" "net56v"
"Env" "Env"
"~R1_1<3>v" "\\~R1_1_3v"
"~R1_1<2>v" "\\~R1_1_2v"
"~R1_1<1>v" "\\~R1_1_1v"
"~R1_1<0>v" "\\~R1_1_0v"
"G01v" "G01v"
"RDataT<3>v" "RDataT_3v"
"RDataT<2>v" "RDataT_2v"
"RDataT<1>v" "RDataT_1v"
"RDataT<0>v" "RDataT_0v"
"W0_1<3>v" "W0_1_3v"
"W0_1<2>v" "W0_1_2v"
"W0_1<1>v" "W0_1_1v"
"W0_1<0>v" "W0_1_0v"
"W1_1<3>v" "W1_1_3v"
"W1_1<2>v" "W1_1_2v"
"W1_1<1>v" "W1_1_1v"
"W1_1<0>v" "W1_1_0v"
"net57v" "net57v"
"WDataT<7>v" "WDataT_7v"
"WDataT<6>v" "WDataT_6v"
"WDataT<5>v" "WDataT_5v"
"WDataT<4>v" "WDataT_4v"
"WDataT<3>v" "WDataT_3v"
"WDataT<2>v" "WDataT_2v"
"WDataT<1>v" "WDataT_1v"
"WDataT<0>v" "WDataT_0v"
"B0_1<3>v" "B0_1_3v"
"B0_1<2>v" "B0_1_2v"
"B0_1<1>v" "B0_1_1v"
"B0_1<0>v" "B0_1_0v"
"AT<11>v" "AT_11v"
"AT<10>v" "AT_10v"
"AT<9>v" "AT_9v"
"AT<8>v" "AT_8v"
"AT<15>v" "AT_15v"
"AT<14>v" "AT_14v"
"AT<13>v" "AT_13v"
"AT<12>v" "AT_12v"
"AT<7>v" "AT_7v"
"AT<6>v" "AT_6v"
"AT<5>v" "AT_5v"
"AT<4>v" "AT_4v"
"AT<3>v" "AT_3v"
"AT<2>v" "AT_2v"
"AT<1>v" "AT_1v"
"AT<0>v" "AT_0v"
"net28v" "net28v"
"ValAddrv" "ValAddrv"
"RDataT<7>v" "RDataT_7v"
"RDataT<6>v" "RDataT_6v"
"RDataT<5>v" "RDataT_5v"
"RDataT<4>v" "RDataT_4v"
"WAckT<1>v" "WAckT_1v"
"WAckT<0>v" "WAckT_0v"
"RAckT<1>v" "RAckT_1v"
"RAckT<0>v" "RAckT_0v"
"net036<0>v" "net036_0v"
"net036<1>v" "net036_1v"
"RWT<1>v" "RWT_1v"
"RWT<0>v" "RWT_0v"
"net40<0>v" "net40_0v"
"net40<1>v" "net40_1v"
"~R0_1<3>v" "\\~R0_1_3v"
"~R0_1<2>v" "\\~R0_1_2v"
"~R0_1<1>v" "\\~R0_1_1v"
"~R0_1<0>v" "\\~R0_1_0v"
"Aline<63>v" "Aline_63v"
"Aline<62>v" "Aline_62v"
"Aline<61>v" "Aline_61v"
"Aline<60>v" "Aline_60v"
"Aline<59>v" "Aline_59v"
"Aline<58>v" "Aline_58v"
"Aline<57>v" "Aline_57v"
"Aline<56>v" "Aline_56v"
"Aline<55>v" "Aline_55v"
"Aline<54>v" "Aline_54v"
"Aline<53>v" "Aline_53v"
"Aline<52>v" "Aline_52v"
"Aline<51>v" "Aline_51v"
"Aline<50>v" "Aline_50v"
"Aline<49>v" "Aline_49v"
"Aline<48>v" "Aline_48v"
"Aline<47>v" "Aline_47v"
"Aline<46>v" "Aline_46v"
"Aline<45>v" "Aline_45v"
"Aline<44>v" "Aline_44v"
"Aline<43>v" "Aline_43v"
"Aline<42>v" "Aline_42v"
"Aline<41>v" "Aline_41v"
"Aline<40>v" "Aline_40v"
"Aline<39>v" "Aline_39v"
"Aline<38>v" "Aline_38v"
"Aline<37>v" "Aline_37v"
"Aline<36>v" "Aline_36v"
"Aline<35>v" "Aline_35v"
"Aline<34>v" "Aline_34v"
"Aline<33>v" "Aline_33v"
"Aline<32>v" "Aline_32v"
"Aline<31>v" "Aline_31v"
"Aline<30>v" "Aline_30v"
"Aline<29>v" "Aline_29v"
"Aline<28>v" "Aline_28v"
"Aline<27>v" "Aline_27v"
"Aline<26>v" "Aline_26v"
"Aline<25>v" "Aline_25v"
"Aline<24>v" "Aline_24v"
"Aline<23>v" "Aline_23v"
"Aline<22>v" "Aline_22v"
"Aline<21>v" "Aline_21v"
"Aline<20>v" "Aline_20v"
"Aline<19>v" "Aline_19v"
"Aline<18>v" "Aline_18v"
"Aline<17>v" "Aline_17v"
"Aline<16>v" "Aline_16v"
"Aline<15>v" "Aline_15v"
"Aline<14>v" "Aline_14v"
"Aline<13>v" "Aline_13v"
"Aline<12>v" "Aline_12v"
"Aline<11>v" "Aline_11v"
"Aline<10>v" "Aline_10v"
"Aline<9>v" "Aline_9v"
"Aline<8>v" "Aline_8v"
"Aline<7>v" "Aline_7v"
"Aline<6>v" "Aline_6v"
"Aline<5>v" "Aline_5v"
"Aline<4>v" "Aline_4v"
"Aline<3>v" "Aline_3v"
"Aline<2>v" "Aline_2v"
"Aline<1>v" "Aline_1v"
"Aline<0>v" "Aline_0v"
"net021v" "net021v"
"S<7>v" "S_7v"
"S<6>v" "S_6v"
"S<5>v" "S_5v"
"S<4>v" "S_4v"
"S<3>v" "S_3v"
"S<2>v" "S_2v"
"S<1>v" "S_1v"
"S<0>v" "S_0v"
"net027<0>v" "net027_0v"
"net027<1>v" "net027_1v"
"net027<2>v" "net027_2v"
"net027<3>v" "net027_3v"
"net027<4>v" "net027_4v"
"net027<5>v" "net027_5v"
"net027<6>v" "net027_6v"
"net027<7>v" "net027_7v"
"net58v" "net58v"
"vdd!v" "vdd!v"
"gnd!v" "0v"
"vcc!v" "vcc!v"
