HEADER
"PSFversion" "1.00"
"A<31>v" "A_31v"
"A<30>v" "A_30v"
"A<29>v" "A_29v"
"A<28>v" "A_28v"
"A<27>v" "A_27v"
"A<26>v" "A_26v"
"A<25>v" "A_25v"
"A<24>v" "A_24v"
"A<23>v" "A_23v"
"A<22>v" "A_22v"
"A<21>v" "A_21v"
"A<20>v" "A_20v"
"A<19>v" "A_19v"
"A<18>v" "A_18v"
"A<17>v" "A_17v"
"A<16>v" "A_16v"
"A<15>v" "A_15v"
"A<14>v" "A_14v"
"A<13>v" "A_13v"
"A<12>v" "A_12v"
"A<11>v" "A_11v"
"A<10>v" "A_10v"
"A<9>v" "A_9v"
"A<8>v" "A_8v"
"A<7>v" "A_7v"
"A<6>v" "A_6v"
"A<5>v" "A_5v"
"A<4>v" "A_4v"
"A<3>v" "A_3v"
"A<2>v" "A_2v"
"A<1>v" "A_1v"
"A<0>v" "A_0v"
"B0v" "B0v"
"B1v" "B1v"
