HEADER
"PSFversion" "1.00"
"I15n" "inv_1x"
"I2n" "nand_1x"
"I10n I0n" "_sub132"
"L0v" ":1v"
"L1v" ":2v"
"Lackv" ":3v"
"Rackv" ":4v"
"~R0v" ":5v"
"~R1v" ":6v"
