HEADER
"PSFversion" "1.00"
"R1<3>v" "R1_3v"
"R1<2>v" "R1_2v"
"R1<1>v" "R1_1v"
"R1<0>v" "R1_0v"
"intWackv" "intWackv"
"wack<2>v" "wack_2v"
"WLAck<2>v" "WLAck_2v"
"Out1<0>v" "Out1_0v"
"RW<0>v" "RW_0v"
"W1<1>v" "W1_1v"
"W0<0>v" "W0_0v"
"B1p<0>v" "B1p_0v"
"Out0<3>v" "Out0_3v"
"Out0<2>v" "Out0_2v"
"Out0<1>v" "Out0_1v"
"Out0<0>v" "Out0_0v"
"B0p<3>v" "B0p_3v"
"B0q<3>v" "B0q_3v"
"W1<3>v" "W1_3v"
"B1p<1>v" "B1p_1v"
"B1<1>v" "B1_1v"
"Out1<1>v" "Out1_1v"
"Gov" "Gov"
"W1<2>v" "W1_2v"
"W1<0>v" "W1_0v"
"R0q<3>v" "R0q_3v"
"R0q<2>v" "R0q_2v"
"R0q<1>v" "R0q_1v"
"R0q<0>v" "R0q_0v"
"B0<3>v" "B0_3v"
"B0<2>v" "B0_2v"
"B0<1>v" "B0_1v"
"B0<0>v" "B0_0v"
"Out1<2>v" "Out1_2v"
"W1_1of4<0>v" "W1_1of4_0v"
"Out1<3>v" "Out1_3v"
"~R0<3>v" "\\~R0_3v"
"~R0<2>v" "\\~R0_2v"
"~R0<1>v" "\\~R0_1v"
"~R0<0>v" "\\~R0_0v"
"W0<3>v" "W0_3v"
"W0<2>v" "W0_2v"
"W0<1>v" "W0_1v"
"W1_1of4<3>v" "W1_1of4_3v"
"W1_1of4<2>v" "W1_1of4_2v"
"W1_1of4<1>v" "W1_1of4_1v"
"R1_1of4<3>v" "R1_1of4_3v"
"R1_1of4<2>v" "R1_1of4_2v"
"R1_1of4<1>v" "R1_1of4_1v"
"R1_1of4<0>v" "R1_1of4_0v"
"Wenv" "Wenv"
"R2_1of4<2>v" "R2_1of4_2v"
"B1<0>v" "B1_0v"
"W2_1of4<0>v" "W2_1of4_0v"
"RpAck<3>v" "RpAck_3v"
"RpAck<2>v" "RpAck_2v"
"RpAck<1>v" "RpAck_1v"
"RpAck<0>v" "RpAck_0v"
"B0p<0>v" "B0p_0v"
"B0p<2>v" "B0p_2v"
"R1q<3>v" "R1q_3v"
"R1q<2>v" "R1q_2v"
"R1q<1>v" "R1q_1v"
"R1q<0>v" "R1q_0v"
"R2_1of4<1>v" "R2_1of4_1v"
"R2_1of4<0>v" "R2_1of4_0v"
"B0p<1>v" "B0p_1v"
"W2_1of4<2>v" "W2_1of4_2v"
"WAck<1>v" "WAck_1v"
"WAck<0>v" "WAck_0v"
"B1p<2>v" "B1p_2v"
"B1p<3>v" "B1p_3v"
"R2_1of4<3>v" "R2_1of4_3v"
"B1<2>v" "B1_2v"
"wack<3>v" "wack_3v"
"B1<3>v" "B1_3v"
"Ackv" "Ackv"
"wack<1>v" "wack_1v"
"RAck<0>v" "RAck_0v"
"wack<0>v" "wack_0v"
"RAck<1>v" "RAck_1v"
"Rack<1>v" "Rack_1v"
"Rack<3>v" "Rack_3v"
"Rack<2>v" "Rack_2v"
"Rack<0>v" "Rack_0v"
"B1q<0>v" "B1q_0v"
"W2_1of4<1>v" "W2_1of4_1v"
"R0<3>v" "R0_3v"
"R0<2>v" "R0_2v"
"R0<1>v" "R0_1v"
"R0<0>v" "R0_0v"
"Lack<0>v" "Lack_0v"
"Lack<1>v" "Lack_1v"
"Lack<2>v" "Lack_2v"
"Lack<3>v" "Lack_3v"
"B1q<1>v" "B1q_1v"
"B1q<2>v" "B1q_2v"
"B1q<3>v" "B1q_3v"
"B0q<1>v" "B0q_1v"
"RW<1>v" "RW_1v"
"ValAddrv" "ValAddrv"
"WLAck<0>v" "WLAck_0v"
"AckThruBotv" "AckThruBotv"
"B0q<0>v" "B0q_0v"
"WLAck<1>v" "WLAck_1v"
"B0q<2>v" "B0q_2v"
"AckThruTopv" "AckThruTopv"
"~R1<3>v" "\\~R1_3v"
"~R1<2>v" "\\~R1_2v"
"~R1<1>v" "\\~R1_1v"
"~R1<0>v" "\\~R1_0v"
"intRackv" "intRackv"
"WLAck<3>v" "WLAck_3v"
"W2_1of4<3>v" "W2_1of4_3v"
"Resetv" "Resetv"
