HEADER
"PSFversion" "1.00"
"I13n I12n" "or4_1x"
"I11n I10n I9n I8n" "TH22"
"I21n I20n I19n I18n" "inv_1x"
"I7n I6n I5n I4n I3n I2n I1n I0n" "TH33"
"I17n I16n I15n I14n" "or_1x"
"a_ackv" ":1v"
"b_ackv" ":2v"
"out<3>v" ":3v"
"out<2>v" ":4v"
"out<1>v" ":5v"
"out<0>v" ":6v"
"a<3>v" ":7v"
"a<2>v" ":8v"
"a<1>v" ":9v"
"a<0>v" ":10v"
"aselv" ":11v"
"b<3>v" ":12v"
"b<2>v" ":13v"
"b<1>v" ":14v"
"b<0>v" ":15v"
"bselv" ":16v"
"ackv" ":17v"
