HEADER
"PSFversion" "1.00"
"net18v" "net18v"
"~R0v" "\\~R0v"
"~R1v" "\\~R1v"
"Rackv" "Rackv"
"L0v" "L0v"
"Lackv" "Lackv"
"L1v" "L1v"
"net19v" "net19v"
