HEADER
"PSFversion" "1.00"
"M5n M3n M2n" "NCSU_TechLib_FreePDK15_pfet_spectre"
"M6n M1n M0n" "NCSU_TechLib_FreePDK15_nfet_spectre"
"Av" ":1v"
"Bv" ":2v"
"Cv" ":3v"
"Yv" ":4v"
