HEADER
"PSFversion" "1.00"
"net018v" "net018v"
"net21v" "net21v"
"Av" "Av"
"Yv" "Yv"
"Cv" "Cv"
"Bv" "Bv"
