HEADER
"PSFversion" "1.00"
"or_pd_psv" "or_pd_psv"
"Yv" "Yv"
"Bv" "Bv"
"Av" "Av"
