HEADER
"PSFversion" "1.00"
"I2n" "nand4_1x"
"I0n I1n I3n I4n" "nor4_1x"
"Yv" ":1v"
"X<15>v" ":2v"
"X<14>v" ":3v"
"X<13>v" ":4v"
"X<12>v" ":5v"
"X<11>v" ":6v"
"X<10>v" ":7v"
"X<9>v" ":8v"
"X<8>v" ":9v"
"X<7>v" ":10v"
"X<6>v" ":11v"
"X<5>v" ":12v"
"X<4>v" ":13v"
"X<3>v" ":14v"
"X<2>v" ":15v"
"X<1>v" ":16v"
"X<0>v" ":17v"
