HEADER
"PSFversion" "1.00"
"I32n I5n" "inv_1x"
"I12n" "_sub38"
"M16n M3n M4n M5n" "NCSU_TechLib_FreePDK15_nfet_spectre"
"M10n M1n" "NCSU_TechLib_FreePDK15_pfet_spectre"
"I6n" "nand_1x"
"I9n" "or_1x"
"I2n I33n" "inv_weak_1x"
"I30n" "TH22"
"Aiv" ":1v"
"Ai+1v" ":2v"
"R0iv" ":3v"
"R0i+1v" ":4v"
"R1iv" ":5v"
"R1i+1v" ":6v"
