HEADER
"PSFversion" "1.00"
"net5v" "net5v"
"Av" "Av"
"Yv" "Yv"
"net17v" "net17v"
"net08v" "net08v"
"net011v" "net011v"
"Bv" "Bv"
"net032v" "net032v"
