HEADER
"PSFversion" "1.00"
"Bv" "Bv"
"net42v" "net42v"
"net47v" "net47v"
"net13v" "net13v"
"Av" "Av"
"net44v" "net44v"
"net46v" "net46v"
"net15v" "net15v"
"Cv" "Cv"
"net43v" "net43v"
"Yv" "Yv"
