HEADER
"PSFversion" "1.00"
"net17v" "net17v"
"net32v" "net32v"
"net33v" "net33v"
"net7v" "net7v"
"net11v" "net11v"
"~B+v" "\\~B\\+v"
"C-v" "C\\-v"
"Yv" "Yv"
"Av" "Av"
"B+v" "B\\+v"
