HEADER
"PSFversion" "1.00"
"I1n I0n" "TH22"
"I6n" "nor_1x"
"L0v" ":1v"
"L1v" ":2v"
"Lackv" ":3v"
"R0v" ":4v"
"R1v" ":5v"
"Rackv" ":6v"
