HEADER
"PSFversion" "1.00"
"m<3>v" "m_3v"
"Out<0>v" "Out_0v"
"Lack<1>v" "Lack_1v"
"Lack<0>v" "Lack_0v"
"n1<1>v" "n1_1v"
"outAckv" "outAckv"
"Out<2>v" "Out_2v"
"L0<1>v" "L0_1v"
"L0<0>v" "L0_0v"
"L1<0>v" "L1_0v"
"m<2>v" "m_2v"
"Out<1>v" "Out_1v"
"n1<0>v" "n1_0v"
"n0<1>v" "n0_1v"
"L1<1>v" "L1_1v"
"n0<0>v" "n0_0v"
"m<1>v" "m_1v"
"net20v" "net20v"
"net27v" "net27v"
"Out<3>v" "Out_3v"
"m<0>v" "m_0v"
"net24v" "net24v"
"Rackv" "Rackv"
"net31v" "net31v"
