HEADER
"PSFversion" "1.00"
"I4n I5n I6n I7n" "_sub1"
"I3n I1n I2n I0n" "_sub4"
"I11n I10n" "nand4_1x_PWR"
"M1n M10n M7n M13n M16n M22n M19n M4n M0n M3n M9n M6n M12n M15n M21n M18n" "NCSU_TechLib_FreePDK15_nfet_spectre"
"C7n C3n C5n C6n C4n C2n C1n C0n" "UCD_Analog_Parts_cap_spectre"
"M5n M2n M11n M8n M17n M14n M20n M23n" "NCSU_TechLib_FreePDK15_pfet_spectre"
"A<31>v" ":1v"
"A<30>v" ":2v"
"A<29>v" ":3v"
"A<28>v" ":4v"
"A<27>v" ":5v"
"A<26>v" ":6v"
"A<25>v" ":7v"
"A<24>v" ":8v"
"A<23>v" ":9v"
"A<22>v" ":10v"
"A<21>v" ":11v"
"A<20>v" ":12v"
"A<19>v" ":13v"
"A<18>v" ":14v"
"A<17>v" ":15v"
"A<16>v" ":16v"
"A<15>v" ":17v"
"A<14>v" ":18v"
"A<13>v" ":19v"
"A<12>v" ":20v"
"A<11>v" ":21v"
"A<10>v" ":22v"
"A<9>v" ":23v"
"A<8>v" ":24v"
"A<7>v" ":25v"
"A<6>v" ":26v"
"A<5>v" ":27v"
"A<4>v" ":28v"
"A<3>v" ":29v"
"A<2>v" ":30v"
"A<1>v" ":31v"
"A<0>v" ":32v"
"B0v" ":33v"
"B1v" ":34v"
"GNDv" ":35v"
"S<3>v" ":36v"
"S<2>v" ":37v"
"S<1>v" ":38v"
"S<0>v" ":39v"
"SM0v" ":40v"
"SM1v" ":41v"
"VDD<7>v" ":42v"
"VDD<6>v" ":43v"
"VDD<5>v" ":44v"
"VDD<4>v" ":45v"
"VDD<3>v" ":46v"
"VDD<2>v" ":47v"
"VDD<1>v" ":48v"
"VDD<0>v" ":49v"
"VDDMv" ":50v"
"W0v" ":51v"
"W1v" ":52v"
