HEADER
"PSFversion" "1.00"
"WDataT<15>v" "WDataT_15v"
"WDataT<14>v" "WDataT_14v"
"WDataT<13>v" "WDataT_13v"
"WDataT<12>v" "WDataT_12v"
"WDataT<11>v" "WDataT_11v"
"WDataT<10>v" "WDataT_10v"
"WDataT<9>v" "WDataT_9v"
"WDataT<8>v" "WDataT_8v"
"WDataT<7>v" "WDataT_7v"
"WDataT<6>v" "WDataT_6v"
"WDataT<5>v" "WDataT_5v"
"WDataT<4>v" "WDataT_4v"
"WDataT<3>v" "WDataT_3v"
"WDataT<2>v" "WDataT_2v"
"WDataT<1>v" "WDataT_1v"
"WDataT<0>v" "WDataT_0v"
"~WData<15>v" "\\~WData_15v"
"~WData<14>v" "\\~WData_14v"
"~WData<13>v" "\\~WData_13v"
"~WData<12>v" "\\~WData_12v"
"~WData<11>v" "\\~WData_11v"
"~WData<10>v" "\\~WData_10v"
"~WData<9>v" "\\~WData_9v"
"~WData<8>v" "\\~WData_8v"
"~WData<7>v" "\\~WData_7v"
"~WData<6>v" "\\~WData_6v"
"~WData<5>v" "\\~WData_5v"
"~WData<4>v" "\\~WData_4v"
"~WData<3>v" "\\~WData_3v"
"~WData<2>v" "\\~WData_2v"
"~WData<1>v" "\\~WData_1v"
"~WData<0>v" "\\~WData_0v"
"~R_Address<11>v" "\\~R_Address_11v"
"~R_Address<10>v" "\\~R_Address_10v"
"~R_Address<9>v" "\\~R_Address_9v"
"~R_Address<8>v" "\\~R_Address_8v"
"~R_Address<7>v" "\\~R_Address_7v"
"~R_Address<6>v" "\\~R_Address_6v"
"~R_Address<5>v" "\\~R_Address_5v"
"~R_Address<4>v" "\\~R_Address_4v"
"~R_Address<3>v" "\\~R_Address_3v"
"~R_Address<2>v" "\\~R_Address_2v"
"~R_Address<1>v" "\\~R_Address_1v"
"~R_Address<0>v" "\\~R_Address_0v"
"~RData<15>v" "\\~RData_15v"
"~RData<14>v" "\\~RData_14v"
"~RData<13>v" "\\~RData_13v"
"~RData<12>v" "\\~RData_12v"
"~RData<11>v" "\\~RData_11v"
"~RData<10>v" "\\~RData_10v"
"~RData<9>v" "\\~RData_9v"
"~RData<8>v" "\\~RData_8v"
"~RData<7>v" "\\~RData_7v"
"~RData<6>v" "\\~RData_6v"
"~RData<5>v" "\\~RData_5v"
"~RData<4>v" "\\~RData_4v"
"~RData<3>v" "\\~RData_3v"
"~RData<2>v" "\\~RData_2v"
"~RData<1>v" "\\~RData_1v"
"~RData<0>v" "\\~RData_0v"
"W_AddressT<11>v" "W_AddressT_11v"
"W_AddressT<10>v" "W_AddressT_10v"
"W_AddressT<9>v" "W_AddressT_9v"
"W_AddressT<8>v" "W_AddressT_8v"
"W_AddressT<7>v" "W_AddressT_7v"
"W_AddressT<6>v" "W_AddressT_6v"
"W_AddressT<5>v" "W_AddressT_5v"
"W_AddressT<4>v" "W_AddressT_4v"
"W_AddressT<3>v" "W_AddressT_3v"
"W_AddressT<2>v" "W_AddressT_2v"
"W_AddressT<1>v" "W_AddressT_1v"
"W_AddressT<0>v" "W_AddressT_0v"
"WDataAckT<7>v" "WDataAckT_7v"
"WDataAckT<6>v" "WDataAckT_6v"
"WDataAckT<5>v" "WDataAckT_5v"
"WDataAckT<4>v" "WDataAckT_4v"
"WDataAckT<3>v" "WDataAckT_3v"
"WDataAckT<2>v" "WDataAckT_2v"
"WDataAckT<1>v" "WDataAckT_1v"
"WDataAckT<0>v" "WDataAckT_0v"
"~ReadEnv" "\\~ReadEnv"
"ReadEnTv" "ReadEnTv"
"R_AddressT<11>v" "R_AddressT_11v"
"R_AddressT<10>v" "R_AddressT_10v"
"R_AddressT<9>v" "R_AddressT_9v"
"R_AddressT<8>v" "R_AddressT_8v"
"R_AddressT<7>v" "R_AddressT_7v"
"R_AddressT<6>v" "R_AddressT_6v"
"R_AddressT<5>v" "R_AddressT_5v"
"R_AddressT<4>v" "R_AddressT_4v"
"R_AddressT<3>v" "R_AddressT_3v"
"R_AddressT<2>v" "R_AddressT_2v"
"R_AddressT<1>v" "R_AddressT_1v"
"R_AddressT<0>v" "R_AddressT_0v"
"~W_Address<11>v" "\\~W_Address_11v"
"~W_Address<10>v" "\\~W_Address_10v"
"~W_Address<9>v" "\\~W_Address_9v"
"~W_Address<8>v" "\\~W_Address_8v"
"~W_Address<7>v" "\\~W_Address_7v"
"~W_Address<6>v" "\\~W_Address_6v"
"~W_Address<5>v" "\\~W_Address_5v"
"~W_Address<4>v" "\\~W_Address_4v"
"~W_Address<3>v" "\\~W_Address_3v"
"~W_Address<2>v" "\\~W_Address_2v"
"~W_Address<1>v" "\\~W_Address_1v"
"~W_Address<0>v" "\\~W_Address_0v"
"RDataT<15>v" "RDataT_15v"
"RDataT<14>v" "RDataT_14v"
"RDataT<13>v" "RDataT_13v"
"RDataT<12>v" "RDataT_12v"
"RDataT<11>v" "RDataT_11v"
"RDataT<10>v" "RDataT_10v"
"RDataT<9>v" "RDataT_9v"
"RDataT<8>v" "RDataT_8v"
"RDataT<7>v" "RDataT_7v"
"RDataT<6>v" "RDataT_6v"
"RDataT<5>v" "RDataT_5v"
"RDataT<4>v" "RDataT_4v"
"RDataT<3>v" "RDataT_3v"
"RDataT<2>v" "RDataT_2v"
"RDataT<1>v" "RDataT_1v"
"RDataT<0>v" "RDataT_0v"
"WAckTv" "WAckTv"
"~WriteEnv" "\\~WriteEnv"
"RAckTv" "RAckTv"
"~WDataAck<7>v" "\\~WDataAck_7v"
"~WDataAck<6>v" "\\~WDataAck_6v"
"~WDataAck<5>v" "\\~WDataAck_5v"
"~WDataAck<4>v" "\\~WDataAck_4v"
"~WDataAck<3>v" "\\~WDataAck_3v"
"~WDataAck<2>v" "\\~WDataAck_2v"
"~WDataAck<1>v" "\\~WDataAck_1v"
"~WDataAck<0>v" "\\~WDataAck_0v"
"~RAckv" "\\~RAckv"
"WriteEnTv" "WriteEnTv"
"~WAckv" "\\~WAckv"
"gnd!v" "0v"
"vcc!v" "vcc!v"
"vdd!v" "vdd!v"
